5717952
  -OEChem-10172515052D

 41 43  0     0  0  0  0  0  0999 V2000
    5.5149   -4.2487    0.0000 Cl  0  0  0  0  0  0  0  0  0  0  0  0
    7.2469   -5.2487    0.0000 Cl  0  0  0  0  0  0  0  0  0  0  0  0
    7.7469    0.2901    0.0000 S   0  0  0  0  0  0  0  0  0  0  0  0
    7.3794    3.8398    0.0000 O   0  0  0  0  0  0  0  0  0  0  0  0
    2.0000    2.4036    0.0000 O   0  5  0  0  0  0  0  0  0  0  0  0
    3.5823    1.6991    0.0000 O   0  0  0  0  0  0  0  0  0  0  0  0
    5.7970    4.5442    0.0000 O   0  0  0  0  0  0  0  0  0  0  0  0
    6.5659    2.0127    0.0000 N   0  0  0  0  0  0  0  0  0  0  0  0
    2.9945    2.5081    0.0000 N   0  3  0  0  0  0  0  0  0  0  0  0
    6.1591    1.0991    0.0000 N   0  0  0  0  0  0  0  0  0  0  0  0
    6.4379   -0.6610    0.0000 N   0  0  0  0  0  0  0  0  0  0  0  0
    4.3958    3.5262    0.0000 C   0  0  0  0  0  0  0  0  0  0  0  0
    4.9836    2.7172    0.0000 C   0  0  0  0  0  0  0  0  0  0  0  0
    3.4013    3.4216    0.0000 C   0  0  0  0  0  0  0  0  0  0  0  0
    5.9781    2.8217    0.0000 C   0  0  0  0  0  0  0  0  0  0  0  0
    4.8025    4.4397    0.0000 C   0  0  0  0  0  0  0  0  0  0  0  0
    2.8135    4.2307    0.0000 C   0  0  0  0  0  0  0  0  0  0  0  0
    7.2469   -2.2487    0.0000 C   0  0  0  0  0  0  0  0  0  0  0  0
    7.2469   -1.2487    0.0000 C   0  0  0  0  0  0  0  0  0  0  0  0
    4.2147    5.2487    0.0000 C   0  0  0  0  0  0  0  0  0  0  0  0
    3.2202    5.1442    0.0000 C   0  0  0  0  0  0  0  0  0  0  0  0
    6.7469    0.2901    0.0000 C   0  0  0  0  0  0  0  0  0  0  0  0
    6.3809   -2.7487    0.0000 C   0  0  0  0  0  0  0  0  0  0  0  0
    8.1130   -2.7487    0.0000 C   0  0  0  0  0  0  0  0  0  0  0  0
    8.0559   -0.6610    0.0000 C   0  0  0  0  0  0  0  0  0  0  0  0
    6.3848    3.7352    0.0000 C   0  0  0  0  0  0  0  0  0  0  0  0
    6.3809   -3.7487    0.0000 C   0  0  0  0  0  0  0  0  0  0  0  0
    8.1130   -3.7487    0.0000 C   0  0  0  0  0  0  0  0  0  0  0  0
    7.2469   -4.2487    0.0000 C   0  0  0  0  0  0  0  0  0  0  0  0
    4.4263    2.4454    0.0000 H   0  0  0  0  0  0  0  0  0  0  0  0
    5.1545    2.1212    0.0000 H   0  0  0  0  0  0  0  0  0  0  0  0
    5.4191    4.5045    0.0000 H   0  0  0  0  0  0  0  0  0  0  0  0
    2.1969    4.1658    0.0000 H   0  0  0  0  0  0  0  0  0  0  0  0
    4.4669    5.8151    0.0000 H   0  0  0  0  0  0  0  0  0  0  0  0
    2.8558    5.6458    0.0000 H   0  0  0  0  0  0  0  0  0  0  0  0
    5.8440   -2.4387    0.0000 H   0  0  0  0  0  0  0  0  0  0  0  0
    8.6499   -2.4387    0.0000 H   0  0  0  0  0  0  0  0  0  0  0  0
    8.6456   -0.8525    0.0000 H   0  0  0  0  0  0  0  0  0  0  0  0
    5.5425    1.0343    0.0000 H   0  0  0  0  0  0  0  0  0  0  0  0
    8.6499   -4.0587    0.0000 H   0  0  0  0  0  0  0  0  0  0  0  0
    7.6315    4.4062    0.0000 H   0  0  0  0  0  0  0  0  0  0  0  0
  1 27  1  0  0  0  0
  2 29  1  0  0  0  0
  3 22  1  0  0  0  0
  3 25  1  0  0  0  0
  4 26  1  0  0  0  0
  4 41  1  0  0  0  0
  5  9  1  0  0  0  0
  6  9  2  0  0  0  0
  7 26  2  0  0  0  0
  8 10  1  0  0  0  0
  8 15  2  0  0  0  0
  9 14  1  0  0  0  0
 10 22  1  0  0  0  0
 10 39  1  0  0  0  0
 11 19  1  0  0  0  0
 11 22  2  0  0  0  0
 12 13  1  0  0  0  0
 12 14  1  0  0  0  0
 12 16  2  0  0  0  0
 13 15  1  0  0  0  0
 13 30  1  0  0  0  0
 13 31  1  0  0  0  0
 14 17  2  0  0  0  0
 15 26  1  0  0  0  0
 16 20  1  0  0  0  0
 16 32  1  0  0  0  0
 17 21  1  0  0  0  0
 17 33  1  0  0  0  0
 18 19  1  0  0  0  0
 18 23  2  0  0  0  0
 18 24  1  0  0  0  0
 19 25  2  0  0  0  0
 20 21  2  0  0  0  0
 20 34  1  0  0  0  0
 21 35  1  0  0  0  0
 23 27  1  0  0  0  0
 23 36  1  0  0  0  0
 24 28  2  0  0  0  0
 24 37  1  0  0  0  0
 25 38  1  0  0  0  0
 27 29  2  0  0  0  0
 28 29  1  0  0  0  0
 28 40  1  0  0  0  0
M  CHG  2   5  -1   9   1
M  END
> <PUBCHEM_COMPOUND_CID>
5717952

> <PUBCHEM_COMPOUND_CANONICALIZED>
1

> <PUBCHEM_CACTVS_COMPLEXITY>
635

> <PUBCHEM_CACTVS_HBOND_ACCEPTOR>
8

> <PUBCHEM_CACTVS_HBOND_DONOR>
2

> <PUBCHEM_CACTVS_ROTATABLE_BOND>
6

> <PUBCHEM_CACTVS_SUBSKEYS>
AAADccB7uABGAAAAAAAAAAAAAAAAAWAAAAAwYAAAAAAAAAAB0AAAHgYcCAAADAqF3iCx2ZJ6UgitAyTybwSS8KlhDzksinUwZpqIILKhk5GEYAhkiAIIyCeY2aGeBAAAIAACAAQIAABAAAQACAAAAAAAAA==

> <PUBCHEM_IUPAC_OPENEYE_NAME>
(2E)-2-[[4-(3,4-dichlorophenyl)thiazol-2-yl]hydrazono]-3-(2-nitrophenyl)propanoic acid

> <PUBCHEM_IUPAC_CAS_NAME>
(2E)-2-[[4-(3,4-dichlorophenyl)-2-thiazolyl]hydrazinylidene]-3-(2-nitrophenyl)propanoic acid

> <PUBCHEM_IUPAC_NAME_MARKUP>
(2<I>E</I>)-2-[[4-(3,4-dichlorophenyl)-1,3-thiazol-2-yl]hydrazinylidene]-3-(2-nitrophenyl)propanoic acid

> <PUBCHEM_IUPAC_NAME>
(2E)-2-[[4-(3,4-dichlorophenyl)-1,3-thiazol-2-yl]hydrazinylidene]-3-(2-nitrophenyl)propanoic acid

> <PUBCHEM_IUPAC_SYSTEMATIC_NAME>
(2E)-2-[[4-(3,4-dichlorophenyl)-1,3-thiazol-2-yl]hydrazinylidene]-3-(2-nitrophenyl)propanoic acid

> <PUBCHEM_IUPAC_TRADITIONAL_NAME>
(2E)-2-[[4-(3,4-dichlorophenyl)thiazol-2-yl]hydrazono]-3-(2-nitrophenyl)propionic acid

> <PUBCHEM_IUPAC_INCHI>
InChI=1S/C18H12Cl2N4O4S/c19-12-6-5-10(7-13(12)20)15-9-29-18(21-15)23-22-14(17(25)26)8-11-3-1-2-4-16(11)24(27)28/h1-7,9H,8H2,(H,21,23)(H,25,26)/b22-14+

> <PUBCHEM_IUPAC_INCHIKEY>
KFRKRECSIYXARE-HYARGMPZSA-N

> <PUBCHEM_XLOGP3_AA>
6.1

> <PUBCHEM_EXACT_MASS>
449.9956314

> <PUBCHEM_MOLECULAR_FORMULA>
C18H12Cl2N4O4S

> <PUBCHEM_MOLECULAR_WEIGHT>
451.3

> <PUBCHEM_SMILES>
C1=CC=C(C(=C1)C/C(=N\NC2=NC(=CS2)C3=CC(=C(C=C3)Cl)Cl)/C(=O)O)[N+](=O)[O-]

> <PUBCHEM_CONNECTIVITY_SMILES>
C1=CC=C(C(=C1)CC(=NNC2=NC(=CS2)C3=CC(=C(C=C3)Cl)Cl)C(=O)O)[N+](=O)[O-]

> <PUBCHEM_CACTVS_TPSA>
149

> <PUBCHEM_MONOISOTOPIC_WEIGHT>
449.9956314

> <PUBCHEM_TOTAL_CHARGE>
0

> <PUBCHEM_HEAVY_ATOM_COUNT>
29

> <PUBCHEM_ATOM_DEF_STEREO_COUNT>
0

> <PUBCHEM_ATOM_UDEF_STEREO_COUNT>
0

> <PUBCHEM_BOND_DEF_STEREO_COUNT>
1

> <PUBCHEM_BOND_UDEF_STEREO_COUNT>
0

> <PUBCHEM_ISOTOPIC_ATOM_COUNT>
0

> <PUBCHEM_COMPONENT_COUNT>
1

> <PUBCHEM_CACTVS_TAUTO_COUNT>
-1

> <PUBCHEM_COORDINATE_TYPE>
1
5
255

> <PUBCHEM_BONDANNOTATIONS>
11  19  8
11  22  8
12  14  8
12  16  8
14  17  8
16  20  8
17  21  8
18  23  8
18  24  8
19  25  8
20  21  8
23  27  8
24  28  8
27  29  8
28  29  8
3  22  8
3  25  8

$$$$
