9821849
  -OEChem-10172515062D

 62 66  0     1  0  0  0  0  0999 V2000
    3.7320   -3.0814    0.0000 O   0  0  0  0  0  0  0  0  0  0  0  0
    2.8718   -1.5781    0.0000 O   0  0  0  0  0  0  0  0  0  0  0  0
   10.0248    2.9210    0.0000 N   0  0  0  0  0  0  0  0  0  0  0  0
    7.3931   -1.0291    0.0000 C   0  0  1  0  0  0  0  0  0  0  0  0
    8.2591   -1.5291    0.0000 C   0  0  2  0  0  0  0  0  0  0  0  0
    9.1251   -1.0291    0.0000 C   0  0  1  0  0  0  0  0  0  0  0  0
    9.1251   -0.0291    0.0000 C   0  0  2  0  0  0  0  0  0  0  0  0
    6.4831   -1.5359    0.0000 C   0  0  2  0  0  0  0  0  0  0  0  0
    7.3931   -0.0291    0.0000 C   0  0  0  0  0  0  0  0  0  0  0  0
    8.2591    0.4709    0.0000 C   0  0  0  0  0  0  0  0  0  0  0  0
    8.2752   -2.5706    0.0000 C   0  0  0  0  0  0  0  0  0  0  0  0
   10.0713   -1.3338    0.0000 C   0  0  0  0  0  0  0  0  0  0  0  0
    6.4750   -2.5775    0.0000 C   0  0  0  0  0  0  0  0  0  0  0  0
    5.5562   -0.9718    0.0000 C   0  0  0  0  0  0  0  0  0  0  0  0
   10.0713    0.2757    0.0000 C   0  0  0  0  0  0  0  0  0  0  0  0
    7.3771   -3.0983    0.0000 C   0  0  0  0  0  0  0  0  0  0  0  0
    9.1251    0.9709    0.0000 C   0  0  0  0  0  0  0  0  0  0  0  0
    6.4908   -0.5359    0.0000 C   0  0  0  0  0  0  0  0  0  0  0  0
   10.6550   -0.5291    0.0000 C   0  0  0  0  0  0  0  0  0  0  0  0
    5.5396   -3.1272    0.0000 C   0  0  0  0  0  0  0  0  0  0  0  0
    4.6084   -1.4998    0.0000 C   0  0  0  0  0  0  0  0  0  0  0  0
    4.6000   -2.5847    0.0000 C   0  0  2  0  0  0  0  0  0  0  0  0
   10.3820    1.2262    0.0000 C   0  0  0  0  0  0  0  0  0  0  0  0
   11.3605    1.4324    0.0000 C   0  0  0  0  0  0  0  0  0  0  0  0
    9.7142    1.9705    0.0000 C   0  0  0  0  0  0  0  0  0  0  0  0
    2.8680   -2.5781    0.0000 C   0  0  0  0  0  0  0  0  0  0  0  0
   11.6712    2.3829    0.0000 C   0  0  0  0  0  0  0  0  0  0  0  0
   11.0033    3.1272    0.0000 C   0  0  0  0  0  0  0  0  0  0  0  0
    2.0000   -3.0747    0.0000 C   0  0  0  0  0  0  0  0  0  0  0  0
    8.1292   -0.6041    0.0000 H   0  0  0  0  0  0  0  0  0  0  0  0
    8.9985   -1.9484    0.0000 H   0  0  0  0  0  0  0  0  0  0  0  0
    9.2151   -1.8743    0.0000 H   0  0  0  0  0  0  0  0  0  0  0  0
    7.1810    0.5535    0.0000 H   0  0  0  0  0  0  0  0  0  0  0  0
    6.7825   -0.1367    0.0000 H   0  0  0  0  0  0  0  0  0  0  0  0
    8.6576    0.9459    0.0000 H   0  0  0  0  0  0  0  0  0  0  0  0
    7.8606    0.9459    0.0000 H   0  0  0  0  0  0  0  0  0  0  0  0
    8.4932   -3.1510    0.0000 H   0  0  0  0  0  0  0  0  0  0  0  0
    8.8843   -2.4551    0.0000 H   0  0  0  0  0  0  0  0  0  0  0  0
    9.8203   -1.9007    0.0000 H   0  0  0  0  0  0  0  0  0  0  0  0
   10.6087   -1.6430    0.0000 H   0  0  0  0  0  0  0  0  0  0  0  0
    5.9644   -0.5052    0.0000 H   0  0  0  0  0  0  0  0  0  0  0  0
    5.1663   -0.4898    0.0000 H   0  0  0  0  0  0  0  0  0  0  0  0
    7.3795   -3.7183    0.0000 H   0  0  0  0  0  0  0  0  0  0  0  0
    9.7451    0.9709    0.0000 H   0  0  0  0  0  0  0  0  0  0  0  0
    9.1251    1.5909    0.0000 H   0  0  0  0  0  0  0  0  0  0  0  0
    8.5051    0.9709    0.0000 H   0  0  0  0  0  0  0  0  0  0  0  0
    7.1108   -0.5407    0.0000 H   0  0  0  0  0  0  0  0  0  0  0  0
    6.4956    0.0840    0.0000 H   0  0  0  0  0  0  0  0  0  0  0  0
    5.8708   -0.5312    0.0000 H   0  0  0  0  0  0  0  0  0  0  0  0
   11.2750   -0.5291    0.0000 H   0  0  0  0  0  0  0  0  0  0  0  0
    5.1423   -3.6032    0.0000 H   0  0  0  0  0  0  0  0  0  0  0  0
    5.9406   -3.6001    0.0000 H   0  0  0  0  0  0  0  0  0  0  0  0
    4.4038   -0.9145    0.0000 H   0  0  0  0  0  0  0  0  0  0  0  0
    3.9967   -1.6012    0.0000 H   0  0  0  0  0  0  0  0  0  0  0  0
    4.0649   -2.2716    0.0000 H   0  0  0  0  0  0  0  0  0  0  0  0
   11.7746    0.9709    0.0000 H   0  0  0  0  0  0  0  0  0  0  0  0
    9.1075    1.8426    0.0000 H   0  0  0  0  0  0  0  0  0  0  0  0
   12.2778    2.5108    0.0000 H   0  0  0  0  0  0  0  0  0  0  0  0
   11.1959    3.7166    0.0000 H   0  0  0  0  0  0  0  0  0  0  0  0
    1.6921   -2.5366    0.0000 H   0  0  0  0  0  0  0  0  0  0  0  0
    1.4619   -3.3826    0.0000 H   0  0  0  0  0  0  0  0  0  0  0  0
    2.3079   -3.6128    0.0000 H   0  0  0  0  0  0  0  0  0  0  0  0
 22  1  1  1  0  0  0
  1 26  1  0  0  0  0
  2 26  2  0  0  0  0
  3 25  1  0  0  0  0
  3 28  2  0  0  0  0
  4  5  1  0  0  0  0
  4  8  1  0  0  0  0
  4  9  1  0  0  0  0
  4 30  1  6  0  0  0
  5  6  1  0  0  0  0
  5 11  1  0  0  0  0
  5 31  1  1  0  0  0
  6  7  1  0  0  0  0
  6 12  1  0  0  0  0
  6 32  1  6  0  0  0
  7 10  1  0  0  0  0
  7 15  1  0  0  0  0
  7 17  1  1  0  0  0
  8 13  1  0  0  0  0
  8 14  1  0  0  0  0
  8 18  1  1  0  0  0
  9 10  1  0  0  0  0
  9 33  1  0  0  0  0
  9 34  1  0  0  0  0
 10 35  1  0  0  0  0
 10 36  1  0  0  0  0
 11 16  1  0  0  0  0
 11 37  1  0  0  0  0
 11 38  1  0  0  0  0
 12 19  1  0  0  0  0
 12 39  1  0  0  0  0
 12 40  1  0  0  0  0
 13 16  2  0  0  0  0
 13 20  1  0  0  0  0
 14 21  1  0  0  0  0
 14 41  1  0  0  0  0
 14 42  1  0  0  0  0
 15 19  2  0  0  0  0
 15 23  1  0  0  0  0
 16 43  1  0  0  0  0
 17 44  1  0  0  0  0
 17 45  1  0  0  0  0
 17 46  1  0  0  0  0
 18 47  1  0  0  0  0
 18 48  1  0  0  0  0
 18 49  1  0  0  0  0
 19 50  1  0  0  0  0
 20 22  1  0  0  0  0
 20 51  1  0  0  0  0
 20 52  1  0  0  0  0
 21 22  1  0  0  0  0
 21 53  1  0  0  0  0
 21 54  1  0  0  0  0
 22 55  1  0  0  0  0
 23 24  1  0  0  0  0
 23 25  2  0  0  0  0
 24 27  2  0  0  0  0
 24 56  1  0  0  0  0
 25 57  1  0  0  0  0
 26 29  1  0  0  0  0
 27 28  1  0  0  0  0
 27 58  1  0  0  0  0
 28 59  1  0  0  0  0
 29 60  1  0  0  0  0
 29 61  1  0  0  0  0
 29 62  1  0  0  0  0
M  END
> <PUBCHEM_COMPOUND_CID>
9821849

> <PUBCHEM_COMPOUND_CANONICALIZED>
1

> <PUBCHEM_CACTVS_COMPLEXITY>
739

> <PUBCHEM_CACTVS_HBOND_ACCEPTOR>
3

> <PUBCHEM_CACTVS_HBOND_DONOR>
0

> <PUBCHEM_CACTVS_ROTATABLE_BOND>
3

> <PUBCHEM_CACTVS_SUBSKEYS>
AAADcfB6MAAAAAAAAAAAAAAAAAAAAQAAAAA8YIEAAAAAAECBgAAAHgAAAAAADxThmgY+iJIIFACoAjD3TACCgCAxAiAI2CA4ZJgIIOLAkZGGIAhkwADIyAeQwPAPgAAAAAAAAADAAAQAACAAAAAAAAAAAA==

> <PUBCHEM_IUPAC_OPENEYE_NAME>
[(3S,8R,9S,10R,13S,14S)-10,13-dimethyl-17-(3-pyridyl)-2,3,4,7,8,9,11,12,14,15-decahydro-1H-cyclopenta[a]phenanthren-3-yl] acetate

> <PUBCHEM_IUPAC_CAS_NAME>
acetic acid [(3S,8R,9S,10R,13S,14S)-10,13-dimethyl-17-(3-pyridinyl)-2,3,4,7,8,9,11,12,14,15-decahydro-1H-cyclopenta[a]phenanthren-3-yl] ester

> <PUBCHEM_IUPAC_NAME_MARKUP>
[(3<I>S</I>,8<I>R</I>,9<I>S</I>,10<I>R</I>,13<I>S</I>,14<I>S</I>)-10,13-dimethyl-17-pyridin-3-yl-2,3,4,7,8,9,11,12,14,15-decahydro-1<I>H</I>-cyclopenta[a]phenanthren-3-yl] acetate

> <PUBCHEM_IUPAC_NAME>
[(3S,8R,9S,10R,13S,14S)-10,13-dimethyl-17-pyridin-3-yl-2,3,4,7,8,9,11,12,14,15-decahydro-1H-cyclopenta[a]phenanthren-3-yl] acetate

> <PUBCHEM_IUPAC_SYSTEMATIC_NAME>
[(3S,8R,9S,10R,13S,14S)-10,13-dimethyl-17-pyridin-3-yl-2,3,4,7,8,9,11,12,14,15-decahydro-1H-cyclopenta[a]phenanthren-3-yl] ethanoate

> <PUBCHEM_IUPAC_TRADITIONAL_NAME>
acetic acid [(3S,8R,9S,10R,13S,14S)-10,13-dimethyl-17-(3-pyridyl)-2,3,4,7,8,9,11,12,14,15-decahydro-1H-cyclopenta[a]phenanthren-3-yl] ester

> <PUBCHEM_IUPAC_INCHI>
InChI=1S/C26H33NO2/c1-17(28)29-20-10-12-25(2)19(15-20)6-7-21-23-9-8-22(18-5-4-14-27-16-18)26(23,3)13-11-24(21)25/h4-6,8,14,16,20-21,23-24H,7,9-13,15H2,1-3H3/t20-,21-,23-,24-,25-,26+/m0/s1

> <PUBCHEM_IUPAC_INCHIKEY>
UVIQSJCZCSLXRZ-UBUQANBQSA-N

> <PUBCHEM_XLOGP3_AA>
5.2

> <PUBCHEM_EXACT_MASS>
391.251129295

> <PUBCHEM_MOLECULAR_FORMULA>
C26H33NO2

> <PUBCHEM_MOLECULAR_WEIGHT>
391.5

> <PUBCHEM_SMILES>
CC(=O)O[C@H]1CC[C@@]2([C@H]3CC[C@]4([C@H]([C@@H]3CC=C2C1)CC=C4C5=CN=CC=C5)C)C

> <PUBCHEM_CONNECTIVITY_SMILES>
CC(=O)OC1CCC2(C3CCC4(C(C3CC=C2C1)CC=C4C5=CN=CC=C5)C)C

> <PUBCHEM_CACTVS_TPSA>
39.2

> <PUBCHEM_MONOISOTOPIC_WEIGHT>
391.251129295

> <PUBCHEM_TOTAL_CHARGE>
0

> <PUBCHEM_HEAVY_ATOM_COUNT>
29

> <PUBCHEM_ATOM_DEF_STEREO_COUNT>
6

> <PUBCHEM_ATOM_UDEF_STEREO_COUNT>
0

> <PUBCHEM_BOND_DEF_STEREO_COUNT>
0

> <PUBCHEM_BOND_UDEF_STEREO_COUNT>
0

> <PUBCHEM_ISOTOPIC_ATOM_COUNT>
0

> <PUBCHEM_COMPONENT_COUNT>
1

> <PUBCHEM_CACTVS_TAUTO_COUNT>
-1

> <PUBCHEM_COORDINATE_TYPE>
1
5
255

> <PUBCHEM_BONDANNOTATIONS>
22  1  5
23  24  8
23  25  8
24  27  8
27  28  8
3  25  8
3  28  8
4  30  6
5  31  5
6  32  6
7  17  5
8  18  5

$$$$
