137319707
  -OEChem-10172515122D

 76 79  0     1  0  0  0  0  0999 V2000
   12.4321    6.3355    0.0000 Cl  0  0  0  0  0  0  0  0  0  0  0  0
    7.7506    6.8782    0.0000 O   0  0  0  0  0  0  0  0  0  0  0  0
    3.7900    8.6987    0.0000 O   0  0  0  0  0  0  0  0  0  0  0  0
    3.2152    2.5428    0.0000 N   0  0  0  0  0  0  0  0  0  0  0  0
    4.5044    5.3090    0.0000 N   0  0  0  0  0  0  0  0  0  0  0  0
    4.1472    7.0039    0.0000 N   0  0  0  0  0  0  0  0  0  0  0  0
    5.7935    6.4658    0.0000 N   0  0  0  0  0  0  0  0  0  0  0  0
    7.0362   10.2679    0.0000 N   0  0  3  0  0  0  0  0  0  0  0  0
    9.3039   11.6308    0.0000 N   0  0  0  0  0  0  0  0  0  0  0  0
    5.0792    9.8554    0.0000 N   0  0  0  0  0  0  0  0  0  0  0  0
    3.5259    1.5923    0.0000 C   0  0  0  0  0  0  0  0  0  0  0  0
    3.3196    0.6138    0.0000 C   0  0  0  0  0  0  0  0  0  0  0  0
    4.2702    0.9245    0.0000 C   0  0  0  0  0  0  0  0  0  0  0  0
    2.2690    2.8476    0.0000 C   0  0  0  0  0  0  0  0  0  0  0  0
    3.7988    3.3476    0.0000 C   0  0  0  0  0  0  0  0  0  0  0  0
    2.2690    3.8476    0.0000 C   0  0  0  0  0  0  0  0  0  0  0  0
    3.2152    4.1523    0.0000 C   0  0  0  0  0  0  0  0  0  0  0  0
    1.4030    2.3476    0.0000 C   0  0  0  0  0  0  0  0  0  0  0  0
    1.4030    4.3476    0.0000 C   0  0  0  0  0  0  0  0  0  0  0  0
    3.5259    5.1028    0.0000 C   0  0  0  0  0  0  0  0  0  0  0  0
    0.5369    2.8476    0.0000 C   0  0  0  0  0  0  0  0  0  0  0  0
    0.5369    3.8476    0.0000 C   0  0  0  0  0  0  0  0  0  0  0  0
    2.8580    5.8471    0.0000 C   0  0  0  0  0  0  0  0  0  0  0  0
    4.8150    6.2596    0.0000 C   0  0  0  0  0  0  0  0  0  0  0  0
    3.1687    6.7976    0.0000 C   0  0  0  0  0  0  0  0  0  0  0  0
    6.1042    7.4163    0.0000 C   0  0  0  0  0  0  0  0  0  0  0  0
    6.7255    9.3174    0.0000 C   0  0  0  0  0  0  0  0  0  0  0  0
    8.0147   10.4741    0.0000 C   0  0  0  0  0  0  0  0  0  0  0  0
    5.7470    9.1111    0.0000 C   0  0  0  0  0  0  0  0  0  0  0  0
    7.0827    7.6225    0.0000 C   0  0  0  0  0  0  0  0  0  0  0  0
    5.4364    8.1606    0.0000 C   0  0  0  0  0  0  0  0  0  0  0  0
    8.3254   11.4246    0.0000 C   0  0  0  0  0  0  0  0  0  0  0  0
    7.3934    8.5730    0.0000 C   0  0  0  0  0  0  0  0  0  0  0  0
    6.3684   11.0122    0.0000 C   0  0  0  0  0  0  0  0  0  0  0  0
    9.6145   12.5813    0.0000 C   0  0  0  0  0  0  0  0  0  0  0  0
    9.9717   10.8865    0.0000 C   0  0  0  0  0  0  0  0  0  0  0  0
    4.1007    9.6492    0.0000 C   0  0  0  0  0  0  0  0  0  0  0  0
    8.7291    7.0844    0.0000 C   0  0  0  0  0  0  0  0  0  0  0  0
    3.4328   10.3935    0.0000 C   0  0  0  0  0  0  0  0  0  0  0  0
    2.4543   10.1873    0.0000 C   0  0  0  0  0  0  0  0  0  0  0  0
    2.9068    1.5588    0.0000 H   0  0  0  0  0  0  0  0  0  0  0  0
    2.7000    0.6344    0.0000 H   0  0  0  0  0  0  0  0  0  0  0  0
    3.4070    0.0000    0.0000 H   0  0  0  0  0  0  0  0  0  0  0  0
    4.5622    0.3776    0.0000 H   0  0  0  0  0  0  0  0  0  0  0  0
    4.7581    1.3070    0.0000 H   0  0  0  0  0  0  0  0  0  0  0  0
    4.4188    3.3476    0.0000 H   0  0  0  0  0  0  0  0  0  0  0  0
    1.4030    1.7276    0.0000 H   0  0  0  0  0  0  0  0  0  0  0  0
    1.4030    4.9676    0.0000 H   0  0  0  0  0  0  0  0  0  0  0  0
    0.0000    2.5376    0.0000 H   0  0  0  0  0  0  0  0  0  0  0  0
    0.0000    4.1576    0.0000 H   0  0  0  0  0  0  0  0  0  0  0  0
    2.2514    5.7193    0.0000 H   0  0  0  0  0  0  0  0  0  0  0  0
    2.7546    7.2591    0.0000 H   0  0  0  0  0  0  0  0  0  0  0  0
    6.2076    6.0043    0.0000 H   0  0  0  0  0  0  0  0  0  0  0  0
    8.0353    9.8544    0.0000 H   0  0  0  0  0  0  0  0  0  0  0  0
    8.6285   10.3867    0.0000 H   0  0  0  0  0  0  0  0  0  0  0  0
    8.3048   12.0443    0.0000 H   0  0  0  0  0  0  0  0  0  0  0  0
    7.7115   11.5120    0.0000 H   0  0  0  0  0  0  0  0  0  0  0  0
    4.8297    8.0328    0.0000 H   0  0  0  0  0  0  0  0  0  0  0  0
    8.0000    8.7009    0.0000 H   0  0  0  0  0  0  0  0  0  0  0  0
    6.8298   11.4262    0.0000 H   0  0  0  0  0  0  0  0  0  0  0  0
    5.9543   11.4736    0.0000 H   0  0  0  0  0  0  0  0  0  0  0  0
    5.9069   10.5981    0.0000 H   0  0  0  0  0  0  0  0  0  0  0  0
    5.2718   10.4448    0.0000 H   0  0  0  0  0  0  0  0  0  0  0  0
   10.2039   12.3887    0.0000 H   0  0  0  0  0  0  0  0  0  0  0  0
    9.8071   13.1707    0.0000 H   0  0  0  0  0  0  0  0  0  0  0  0
    9.0252   12.7740    0.0000 H   0  0  0  0  0  0  0  0  0  0  0  0
    9.5102   10.4725    0.0000 H   0  0  0  0  0  0  0  0  0  0  0  0
   10.3858   10.4251    0.0000 H   0  0  0  0  0  0  0  0  0  0  0  0
   10.4332   11.3006    0.0000 H   0  0  0  0  0  0  0  0  0  0  0  0
    8.8569    6.4778    0.0000 H   0  0  0  0  0  0  0  0  0  0  0  0
    9.3357    7.2123    0.0000 H   0  0  0  0  0  0  0  0  0  0  0  0
    8.6012    7.6911    0.0000 H   0  0  0  0  0  0  0  0  0  0  0  0
    3.6254   10.9828    0.0000 H   0  0  0  0  0  0  0  0  0  0  0  0
    2.0403   10.6488    0.0000 H   0  0  0  0  0  0  0  0  0  0  0  0
    2.2617    9.5980    0.0000 H   0  0  0  0  0  0  0  0  0  0  0  0
   13.4321    6.3355    0.0000 H   0  0  0  0  0  0  0  0  0  0  0  0
  1 76  1  0  0  0  0
  2 30  1  0  0  0  0
  2 38  1  0  0  0  0
  3 37  2  0  0  0  0
  4 11  1  0  0  0  0
  4 14  1  0  0  0  0
  4 15  1  0  0  0  0
  5 20  2  0  0  0  0
  5 24  1  0  0  0  0
  6 24  2  0  0  0  0
  6 25  1  0  0  0  0
  7 24  1  0  0  0  0
  7 26  1  0  0  0  0
  7 53  1  0  0  0  0
  8 27  1  0  0  0  0
  8 28  1  0  0  0  0
  8 34  1  0  0  0  0
  9 32  1  0  0  0  0
  9 35  1  0  0  0  0
  9 36  1  0  0  0  0
 10 29  1  0  0  0  0
 10 37  1  0  0  0  0
 10 63  1  0  0  0  0
 11 12  1  0  0  0  0
 11 13  1  0  0  0  0
 11 41  1  0  0  0  0
 12 13  1  0  0  0  0
 12 42  1  0  0  0  0
 12 43  1  0  0  0  0
 13 44  1  0  0  0  0
 13 45  1  0  0  0  0
 14 16  1  0  0  0  0
 14 18  2  0  0  0  0
 15 17  2  0  0  0  0
 15 46  1  0  0  0  0
 16 17  1  0  0  0  0
 16 19  2  0  0  0  0
 17 20  1  0  0  0  0
 18 21  1  0  0  0  0
 18 47  1  0  0  0  0
 19 22  1  0  0  0  0
 19 48  1  0  0  0  0
 20 23  1  0  0  0  0
 21 22  2  0  0  0  0
 21 49  1  0  0  0  0
 22 50  1  0  0  0  0
 23 25  2  0  0  0  0
 23 51  1  0  0  0  0
 25 52  1  0  0  0  0
 26 30  2  0  0  0  0
 26 31  1  0  0  0  0
 27 29  1  0  0  0  0
 27 33  2  0  0  0  0
 28 32  1  0  0  0  0
 28 54  1  0  0  0  0
 28 55  1  0  0  0  0
 29 31  2  0  0  0  0
 30 33  1  0  0  0  0
 31 58  1  0  0  0  0
 32 56  1  0  0  0  0
 32 57  1  0  0  0  0
 33 59  1  0  0  0  0
 34 60  1  0  0  0  0
 34 61  1  0  0  0  0
 34 62  1  0  0  0  0
 35 64  1  0  0  0  0
 35 65  1  0  0  0  0
 35 66  1  0  0  0  0
 36 67  1  0  0  0  0
 36 68  1  0  0  0  0
 36 69  1  0  0  0  0
 37 39  1  0  0  0  0
 38 70  1  0  0  0  0
 38 71  1  0  0  0  0
 38 72  1  0  0  0  0
 39 40  2  0  0  0  0
 39 73  1  0  0  0  0
 40 74  1  0  0  0  0
 40 75  1  0  0  0  0
M  END
> <PUBCHEM_COMPOUND_CID>
137319707

> <PUBCHEM_COMPOUND_CANONICALIZED>
1

> <PUBCHEM_CACTVS_COMPLEXITY>
823

> <PUBCHEM_CACTVS_HBOND_ACCEPTOR>
7

> <PUBCHEM_CACTVS_HBOND_DONOR>
3

> <PUBCHEM_CACTVS_ROTATABLE_BOND>
11

> <PUBCHEM_CACTVS_SUBSKEYS>
AAADcfB7sAAEAAAAAAAAAAAAGAAAAWAAAAA8YIAAAAAAAFgB/AAAHgAQAAAADCzBngY/1vfMFACoAzV3dACCiCkxIqAJ2CA/fNiObuLE+duVNChu1BvY6Kew0MMOgECAAgQCECAAgQAECAQgQAAAAAAAAA==

> <PUBCHEM_IUPAC_OPENEYE_NAME>
N-[5-[[4-(1-cyclopropylindol-3-yl)pyrimidin-2-yl]amino]-2-[2-(dimethylamino)ethyl-methyl-amino]-4-methoxy-phenyl]prop-2-enamide;hydrochloride

> <PUBCHEM_IUPAC_CAS_NAME>
N-[5-[[4-(1-cyclopropyl-3-indolyl)-2-pyrimidinyl]amino]-2-[2-(dimethylamino)ethyl-methylamino]-4-methoxyphenyl]-2-propenamide;hydrochloride

> <PUBCHEM_IUPAC_NAME_MARKUP>
<I>N</I>-[5-[[4-(1-cyclopropylindol-3-yl)pyrimidin-2-yl]amino]-2-[2-(dimethylamino)ethyl-methylamino]-4-methoxyphenyl]prop-2-enamide;hydrochloride

> <PUBCHEM_IUPAC_NAME>
N-[5-[[4-(1-cyclopropylindol-3-yl)pyrimidin-2-yl]amino]-2-[2-(dimethylamino)ethyl-methylamino]-4-methoxyphenyl]prop-2-enamide;hydrochloride

> <PUBCHEM_IUPAC_SYSTEMATIC_NAME>
N-[5-[[4-(1-cyclopropylindol-3-yl)pyrimidin-2-yl]amino]-2-[2-(dimethylamino)ethyl-methyl-amino]-4-methoxy-phenyl]prop-2-enamide;hydrochloride

> <PUBCHEM_IUPAC_TRADITIONAL_NAME>
N-[5-[[4-(1-cyclopropylindol-3-yl)pyrimidin-2-yl]amino]-2-[2-(dimethylamino)ethyl-methyl-amino]-4-methoxy-phenyl]acrylamide;hydrochloride

> <PUBCHEM_IUPAC_INCHI>
InChI=1S/C30H35N7O2.ClH/c1-6-29(38)32-24-17-25(28(39-5)18-27(24)36(4)16-15-35(2)3)34-30-31-14-13-23(33-30)22-19-37(20-11-12-20)26-10-8-7-9-21(22)26;/h6-10,13-14,17-20H,1,11-12,15-16H2,2-5H3,(H,32,38)(H,31,33,34);1H

> <PUBCHEM_IUPAC_INCHIKEY>
CUXBWKDZKQGJNN-UHFFFAOYSA-N

> <PUBCHEM_EXACT_MASS>
561.2619011

> <PUBCHEM_MOLECULAR_FORMULA>
C30H36ClN7O2

> <PUBCHEM_MOLECULAR_WEIGHT>
562.1

> <PUBCHEM_SMILES>
CN(C)CCN(C)C1=CC(=C(C=C1NC(=O)C=C)NC2=NC=CC(=N2)C3=CN(C4=CC=CC=C43)C5CC5)OC.Cl

> <PUBCHEM_CONNECTIVITY_SMILES>
CN(C)CCN(C)C1=CC(=C(C=C1NC(=O)C=C)NC2=NC=CC(=N2)C3=CN(C4=CC=CC=C43)C5CC5)OC.Cl

> <PUBCHEM_CACTVS_TPSA>
87.6

> <PUBCHEM_MONOISOTOPIC_WEIGHT>
561.2619011

> <PUBCHEM_TOTAL_CHARGE>
0

> <PUBCHEM_HEAVY_ATOM_COUNT>
40

> <PUBCHEM_ATOM_DEF_STEREO_COUNT>
0

> <PUBCHEM_ATOM_UDEF_STEREO_COUNT>
0

> <PUBCHEM_BOND_DEF_STEREO_COUNT>
0

> <PUBCHEM_BOND_UDEF_STEREO_COUNT>
0

> <PUBCHEM_ISOTOPIC_ATOM_COUNT>
0

> <PUBCHEM_COMPONENT_COUNT>
2

> <PUBCHEM_CACTVS_TAUTO_COUNT>
-1

> <PUBCHEM_COORDINATE_TYPE>
1
5
255

> <PUBCHEM_BONDANNOTATIONS>
14  16  8
14  18  8
15  17  8
16  17  8
16  19  8
18  21  8
19  22  8
20  23  8
21  22  8
23  25  8
26  30  8
26  31  8
27  29  8
27  33  8
29  31  8
30  33  8
4  14  8
4  15  8
5  20  8
5  24  8
6  24  8
6  25  8

$$$$
