56649450
  -OEChem-10172515082D

 52 54  0     1  0  0  0  0  0999 V2000
    7.0400    0.1266    0.0000 S   0  0  0  0  0  0  0  0  0  0  0  0
    9.6856   -4.4666    0.0000 F   0  0  0  0  0  0  0  0  0  0  0  0
   10.6856   -3.4666    0.0000 F   0  0  0  0  0  0  0  0  0  0  0  0
    8.6856   -3.4666    0.0000 F   0  0  0  0  0  0  0  0  0  0  0  0
    4.2839    3.5001    0.0000 O   0  0  0  0  0  0  0  0  0  0  0  0
    5.1953    2.4878    0.0000 O   0  0  0  0  0  0  0  0  0  0  0  0
    3.7940    1.4698    0.0000 N   0  0  0  0  0  0  0  0  0  0  0  0
    5.3763    0.7653    0.0000 N   0  0  0  0  0  0  0  0  0  0  0  0
    2.5897    3.8602    0.0000 N   0  0  0  0  0  0  0  0  0  0  0  0
   10.5516   -0.9666    0.0000 N   0  0  0  0  0  0  0  0  0  0  0  0
    6.8709    1.7358    0.0000 N   0  0  0  0  0  0  0  0  0  0  0  0
    3.1249    2.2129    0.0000 C   0  0  1  0  0  0  0  0  0  0  0  0
    2.2113    1.8062    0.0000 C   0  0  0  0  0  0  0  0  0  0  0  0
    2.3159    0.8116    0.0000 C   0  0  0  0  0  0  0  0  0  0  0  0
    3.2940    0.6037    0.0000 C   0  0  0  0  0  0  0  0  0  0  0  0
    3.3328    3.1910    0.0000 C   0  0  0  0  0  0  0  0  0  0  0  0
    4.7885    1.5743    0.0000 C   0  0  0  0  0  0  0  0  0  0  0  0
    9.6856   -2.4666    0.0000 C   0  0  0  0  0  0  0  0  0  0  0  0
    9.6856   -1.4666    0.0000 C   0  0  0  0  0  0  0  0  0  0  0  0
    9.6856   -3.4666    0.0000 C   0  0  0  0  0  0  0  0  0  0  0  0
   10.6856   -2.4666    0.0000 C   0  0  0  0  0  0  0  0  0  0  0  0
    8.6856   -2.4666    0.0000 C   0  0  0  0  0  0  0  0  0  0  0  0
    8.8196   -0.9666    0.0000 C   0  0  0  0  0  0  0  0  0  0  0  0
    8.8196    0.0334    0.0000 C   0  0  0  0  0  0  0  0  0  0  0  0
    6.3709    0.8698    0.0000 C   0  0  0  0  0  0  0  0  0  0  0  0
    7.9535    0.5334    0.0000 C   0  0  0  0  0  0  0  0  0  0  0  0
    7.8490    1.5279    0.0000 C   0  0  0  0  0  0  0  0  0  0  0  0
    9.6856    0.5334    0.0000 C   0  0  0  0  0  0  0  0  0  0  0  0
   10.5516    0.0334    0.0000 C   0  0  0  0  0  0  0  0  0  0  0  0
    8.5921    2.1970    0.0000 C   0  0  0  0  0  0  0  0  0  0  0  0
    3.7238    2.3734    0.0000 H   0  0  0  0  0  0  0  0  0  0  0  0
    2.0198    2.3958    0.0000 H   0  0  0  0  0  0  0  0  0  0  0  0
    1.6049    1.6773    0.0000 H   0  0  0  0  0  0  0  0  0  0  0  0
    1.6959    0.8116    0.0000 H   0  0  0  0  0  0  0  0  0  0  0  0
    2.2511    0.1950    0.0000 H   0  0  0  0  0  0  0  0  0  0  0  0
    3.1024    0.0141    0.0000 H   0  0  0  0  0  0  0  0  0  0  0  0
    3.8604    0.3515    0.0000 H   0  0  0  0  0  0  0  0  0  0  0  0
    5.1242    0.1989    0.0000 H   0  0  0  0  0  0  0  0  0  0  0  0
   10.6856   -3.0866    0.0000 H   0  0  0  0  0  0  0  0  0  0  0  0
   11.3056   -2.4666    0.0000 H   0  0  0  0  0  0  0  0  0  0  0  0
   10.6856   -1.8466    0.0000 H   0  0  0  0  0  0  0  0  0  0  0  0
    8.6856   -1.8466    0.0000 H   0  0  0  0  0  0  0  0  0  0  0  0
    8.0656   -2.4666    0.0000 H   0  0  0  0  0  0  0  0  0  0  0  0
    8.6856   -3.0866    0.0000 H   0  0  0  0  0  0  0  0  0  0  0  0
    2.7186    4.4666    0.0000 H   0  0  0  0  0  0  0  0  0  0  0  0
    2.0000    3.6686    0.0000 H   0  0  0  0  0  0  0  0  0  0  0  0
    8.2826   -1.2766    0.0000 H   0  0  0  0  0  0  0  0  0  0  0  0
    9.6856    1.1534    0.0000 H   0  0  0  0  0  0  0  0  0  0  0  0
   11.0885    0.3434    0.0000 H   0  0  0  0  0  0  0  0  0  0  0  0
    9.0070    1.7363    0.0000 H   0  0  0  0  0  0  0  0  0  0  0  0
    9.0529    2.6119    0.0000 H   0  0  0  0  0  0  0  0  0  0  0  0
    8.1773    2.6578    0.0000 H   0  0  0  0  0  0  0  0  0  0  0  0
  1 25  1  0  0  0  0
  1 26  1  0  0  0  0
  2 20  1  0  0  0  0
  3 20  1  0  0  0  0
  4 20  1  0  0  0  0
  5 16  2  0  0  0  0
  6 17  2  0  0  0  0
  7 12  1  0  0  0  0
  7 15  1  0  0  0  0
  7 17  1  0  0  0  0
  8 17  1  0  0  0  0
  8 25  1  0  0  0  0
  8 38  1  0  0  0  0
  9 16  1  0  0  0  0
  9 45  1  0  0  0  0
  9 46  1  0  0  0  0
 10 19  2  0  0  0  0
 10 29  1  0  0  0  0
 11 25  2  0  0  0  0
 11 27  1  0  0  0  0
 12 13  1  0  0  0  0
 12 16  1  1  0  0  0
 12 31  1  0  0  0  0
 13 14  1  0  0  0  0
 13 32  1  0  0  0  0
 13 33  1  0  0  0  0
 14 15  1  0  0  0  0
 14 34  1  0  0  0  0
 14 35  1  0  0  0  0
 15 36  1  0  0  0  0
 15 37  1  0  0  0  0
 18 19  1  0  0  0  0
 18 20  1  0  0  0  0
 18 21  1  0  0  0  0
 18 22  1  0  0  0  0
 19 23  1  0  0  0  0
 21 39  1  0  0  0  0
 21 40  1  0  0  0  0
 21 41  1  0  0  0  0
 22 42  1  0  0  0  0
 22 43  1  0  0  0  0
 22 44  1  0  0  0  0
 23 24  2  0  0  0  0
 23 47  1  0  0  0  0
 24 26  1  0  0  0  0
 24 28  1  0  0  0  0
 26 27  2  0  0  0  0
 27 30  1  0  0  0  0
 28 29  2  0  0  0  0
 28 48  1  0  0  0  0
 29 49  1  0  0  0  0
 30 50  1  0  0  0  0
 30 51  1  0  0  0  0
 30 52  1  0  0  0  0
M  END
> <PUBCHEM_COMPOUND_CID>
56649450

> <PUBCHEM_COMPOUND_CANONICALIZED>
1

> <PUBCHEM_CACTVS_COMPLEXITY>
663

> <PUBCHEM_CACTVS_HBOND_ACCEPTOR>
8

> <PUBCHEM_CACTVS_HBOND_DONOR>
2

> <PUBCHEM_CACTVS_ROTATABLE_BOND>
4

> <PUBCHEM_CACTVS_SUBSKEYS>
AAADceB7sYBAAAAAAAAAAAAAAAAAAWLAAAAsAAAAAAAAAAAB4AAAHwQQAAAADijB3hQ/kZPIEAisAzV3dACC8KlxCjkJ2DW4ZJiIYHLgkbGUIAholwLIyCcYgcAPAAAAAAAAAAAAAAAAAAAAAAAAAAAAAA==

> <PUBCHEM_IUPAC_OPENEYE_NAME>
(2S)-N1-[4-methyl-5-[2-(2,2,2-trifluoro-1,1-dimethyl-ethyl)-4-pyridyl]thiazol-2-yl]pyrrolidine-1,2-dicarboxamide

> <PUBCHEM_IUPAC_CAS_NAME>
(2S)-N1-[4-methyl-5-[2-(1,1,1-trifluoro-2-methylpropan-2-yl)-4-pyridinyl]-2-thiazolyl]pyrrolidine-1,2-dicarboxamide

> <PUBCHEM_IUPAC_NAME_MARKUP>
(2<I>S</I>)-1-<I>N</I>-[4-methyl-5-[2-(1,1,1-trifluoro-2-methylpropan-2-yl)-4-pyridinyl]-1,3-thiazol-2-yl]pyrrolidine-1,2-dicarboxamide

> <PUBCHEM_IUPAC_NAME>
(2S)-1-N-[4-methyl-5-[2-(1,1,1-trifluoro-2-methylpropan-2-yl)-4-pyridinyl]-1,3-thiazol-2-yl]pyrrolidine-1,2-dicarboxamide

> <PUBCHEM_IUPAC_SYSTEMATIC_NAME>
(2S)-N1-[4-methyl-5-[2-[1,1,1-tris(fluoranyl)-2-methyl-propan-2-yl]-4-pyridinyl]-1,3-thiazol-2-yl]pyrrolidine-1,2-dicarboxamide

> <PUBCHEM_IUPAC_TRADITIONAL_NAME>
(2S)-N-[4-methyl-5-[2-(2,2,2-trifluoro-1,1-dimethyl-ethyl)-4-pyridyl]thiazol-2-yl]pyrrolidine-1,2-dicarboxamide

> <PUBCHEM_IUPAC_INCHI>
InChI=1S/C19H22F3N5O2S/c1-10-14(11-6-7-24-13(9-11)18(2,3)19(20,21)22)30-16(25-10)26-17(29)27-8-4-5-12(27)15(23)28/h6-7,9,12H,4-5,8H2,1-3H3,(H2,23,28)(H,25,26,29)/t12-/m0/s1

> <PUBCHEM_IUPAC_INCHIKEY>
STUWGJZDJHPWGZ-LBPRGKRZSA-N

> <PUBCHEM_XLOGP3_AA>
3.2

> <PUBCHEM_EXACT_MASS>
441.14463062

> <PUBCHEM_MOLECULAR_FORMULA>
C19H22F3N5O2S

> <PUBCHEM_MOLECULAR_WEIGHT>
441.5

> <PUBCHEM_SMILES>
CC1=C(SC(=N1)NC(=O)N2CCC[C@H]2C(=O)N)C3=CC(=NC=C3)C(C)(C)C(F)(F)F

> <PUBCHEM_CONNECTIVITY_SMILES>
CC1=C(SC(=N1)NC(=O)N2CCCC2C(=O)N)C3=CC(=NC=C3)C(C)(C)C(F)(F)F

> <PUBCHEM_CACTVS_TPSA>
129

> <PUBCHEM_MONOISOTOPIC_WEIGHT>
441.14463062

> <PUBCHEM_TOTAL_CHARGE>
0

> <PUBCHEM_HEAVY_ATOM_COUNT>
30

> <PUBCHEM_ATOM_DEF_STEREO_COUNT>
1

> <PUBCHEM_ATOM_UDEF_STEREO_COUNT>
0

> <PUBCHEM_BOND_DEF_STEREO_COUNT>
0

> <PUBCHEM_BOND_UDEF_STEREO_COUNT>
0

> <PUBCHEM_ISOTOPIC_ATOM_COUNT>
0

> <PUBCHEM_COMPONENT_COUNT>
1

> <PUBCHEM_CACTVS_TAUTO_COUNT>
-1

> <PUBCHEM_COORDINATE_TYPE>
1
5
255

> <PUBCHEM_BONDANNOTATIONS>
1  25  8
1  26  8
10  19  8
10  29  8
11  25  8
11  27  8
12  16  5
19  23  8
23  24  8
24  28  8
26  27  8
28  29  8

$$$$
