2194
  -OEChem-10172515132D

 22 23  0     0  0  0  0  0  0999 V2000
    2.0570    1.6639    0.0000 S   0  0  0  0  0  0  0  0  0  0  0  0
    2.3660    2.6149    0.0000 S   0  0  0  0  0  0  0  0  0  0  0  0
    3.9538    3.4239    0.0000 S   0  0  0  0  0  0  0  0  0  0  0  0
    2.8660   -2.9239    0.0000 O   0  0  0  0  0  0  0  0  0  0  0  0
    2.8660    0.0761    0.0000 C   0  0  0  0  0  0  0  0  0  0  0  0
    2.8660    1.0761    0.0000 C   0  0  0  0  0  0  0  0  0  0  0  0
    2.0000   -0.4239    0.0000 C   0  0  0  0  0  0  0  0  0  0  0  0
    3.7321   -0.4239    0.0000 C   0  0  0  0  0  0  0  0  0  0  0  0
    2.8660   -1.9239    0.0000 C   0  0  0  0  0  0  0  0  0  0  0  0
    2.0000   -1.4239    0.0000 C   0  0  0  0  0  0  0  0  0  0  0  0
    3.7321   -1.4239    0.0000 C   0  0  0  0  0  0  0  0  0  0  0  0
    3.6750    1.6639    0.0000 C   0  0  0  0  0  0  0  0  0  0  0  0
    3.3660    2.6149    0.0000 C   0  0  0  0  0  0  0  0  0  0  0  0
    2.0000   -3.4239    0.0000 C   0  0  0  0  0  0  0  0  0  0  0  0
    1.4631   -0.1139    0.0000 H   0  0  0  0  0  0  0  0  0  0  0  0
    4.2690   -0.1139    0.0000 H   0  0  0  0  0  0  0  0  0  0  0  0
    1.4631   -1.7339    0.0000 H   0  0  0  0  0  0  0  0  0  0  0  0
    4.2690   -1.7339    0.0000 H   0  0  0  0  0  0  0  0  0  0  0  0
    4.2647    1.4723    0.0000 H   0  0  0  0  0  0  0  0  0  0  0  0
    1.6900   -2.8870    0.0000 H   0  0  0  0  0  0  0  0  0  0  0  0
    1.4631   -3.7339    0.0000 H   0  0  0  0  0  0  0  0  0  0  0  0
    2.3100   -3.9609    0.0000 H   0  0  0  0  0  0  0  0  0  0  0  0
  1  2  1  0  0  0  0
  1  6  1  0  0  0  0
  2 13  1  0  0  0  0
  3 13  2  0  0  0  0
  4  9  1  0  0  0  0
  4 14  1  0  0  0  0
  5  6  1  0  0  0  0
  5  7  2  0  0  0  0
  5  8  1  0  0  0  0
  6 12  2  0  0  0  0
  7 10  1  0  0  0  0
  7 15  1  0  0  0  0
  8 11  2  0  0  0  0
  8 16  1  0  0  0  0
  9 10  2  0  0  0  0
  9 11  1  0  0  0  0
 10 17  1  0  0  0  0
 11 18  1  0  0  0  0
 12 13  1  0  0  0  0
 12 19  1  0  0  0  0
 14 20  1  0  0  0  0
 14 21  1  0  0  0  0
 14 22  1  0  0  0  0
M  END
> <PUBCHEM_COMPOUND_CID>
2194

> <PUBCHEM_COMPOUND_CANONICALIZED>
1

> <PUBCHEM_CACTVS_COMPLEXITY>
254

> <PUBCHEM_CACTVS_HBOND_ACCEPTOR>
4

> <PUBCHEM_CACTVS_HBOND_DONOR>
0

> <PUBCHEM_CACTVS_ROTATABLE_BOND>
2

> <PUBCHEM_CACTVS_SUBSKEYS>
AAADccBwIABgAAAAAAAAAAAAAAAAAQAAAAAwAAAAAAAAAAABAAAAGgQAAAAADASA2AIyBoAABACEAiBCAAACCAAgIAAIiAAGCIgMJiKEMRqAMCAkwBEIqAeAwAAOIAAAAAAAAABAAAAAAAAAAAAAAAAAAA==

> <PUBCHEM_IUPAC_OPENEYE_NAME>
5-(4-methoxyphenyl)dithiole-3-thione

> <PUBCHEM_IUPAC_CAS_NAME>
5-(4-methoxyphenyl)-3-dithiolethione

> <PUBCHEM_IUPAC_NAME_MARKUP>
5-(4-methoxyphenyl)dithiole-3-thione

> <PUBCHEM_IUPAC_NAME>
5-(4-methoxyphenyl)dithiole-3-thione

> <PUBCHEM_IUPAC_SYSTEMATIC_NAME>
5-(4-methoxyphenyl)-1,2-dithiole-3-thione

> <PUBCHEM_IUPAC_TRADITIONAL_NAME>
5-(4-methoxyphenyl)dithiole-3-thione

> <PUBCHEM_IUPAC_INCHI>
InChI=1S/C10H8OS3/c1-11-8-4-2-7(3-5-8)9-6-10(12)14-13-9/h2-6H,1H3

> <PUBCHEM_IUPAC_INCHIKEY>
KYLIZBIRMBGUOP-UHFFFAOYSA-N

> <PUBCHEM_XLOGP3_AA>
2.8

> <PUBCHEM_EXACT_MASS>
239.97372840

> <PUBCHEM_MOLECULAR_FORMULA>
C10H8OS3

> <PUBCHEM_MOLECULAR_WEIGHT>
240.4

> <PUBCHEM_SMILES>
COC1=CC=C(C=C1)C2=CC(=S)SS2

> <PUBCHEM_CONNECTIVITY_SMILES>
COC1=CC=C(C=C1)C2=CC(=S)SS2

> <PUBCHEM_CACTVS_TPSA>
91.9

> <PUBCHEM_MONOISOTOPIC_WEIGHT>
239.97372840

> <PUBCHEM_TOTAL_CHARGE>
0

> <PUBCHEM_HEAVY_ATOM_COUNT>
14

> <PUBCHEM_ATOM_DEF_STEREO_COUNT>
0

> <PUBCHEM_ATOM_UDEF_STEREO_COUNT>
0

> <PUBCHEM_BOND_DEF_STEREO_COUNT>
0

> <PUBCHEM_BOND_UDEF_STEREO_COUNT>
0

> <PUBCHEM_ISOTOPIC_ATOM_COUNT>
0

> <PUBCHEM_COMPONENT_COUNT>
1

> <PUBCHEM_CACTVS_TAUTO_COUNT>
-1

> <PUBCHEM_COORDINATE_TYPE>
1
5
255

> <PUBCHEM_BONDANNOTATIONS>
1  2  8
1  6  8
12  13  8
2  13  8
5  7  8
5  8  8
6  12  8
7  10  8
8  11  8
9  10  8
9  11  8

$$$$
