11960271
  -OEChem-10172515082D

 42 47  0     0  0  0  0  0  0999 V2000
    2.0000   -0.7375    0.0000 F   0  0  0  0  0  0  0  0  0  0  0  0
    6.9166   -0.6904    0.0000 N   0  0  0  0  0  0  0  0  0  0  0  0
    5.0959   -3.2343    0.0000 N   0  0  0  0  0  0  0  0  0  0  0  0
    5.5227    0.1144    0.0000 N   0  0  0  0  0  0  0  0  0  0  0  0
    8.8857    2.3161    0.0000 N   0  0  0  0  0  0  0  0  0  0  0  0
    7.1418    3.3230    0.0000 N   0  0  0  0  0  0  0  0  0  0  0  0
    5.4279   -1.6595    0.0000 C   0  0  0  0  0  0  0  0  0  0  0  0
    7.1258    0.2814    0.0000 C   0  0  0  0  0  0  0  0  0  0  0  0
    5.9279   -0.7934    0.0000 C   0  0  0  0  0  0  0  0  0  0  0  0
    6.2598    0.7814    0.0000 C   0  0  0  0  0  0  0  0  0  0  0  0
    4.4391   -1.7625    0.0000 C   0  0  0  0  0  0  0  0  0  0  0  0
    5.8330   -2.5672    0.0000 C   0  0  0  0  0  0  0  0  0  0  0  0
    7.9918    0.7814    0.0000 C   0  0  0  0  0  0  0  0  0  0  0  0
    6.2598    1.7814    0.0000 C   0  0  0  0  0  0  0  0  0  0  0  0
    4.2329   -2.7410    0.0000 C   0  0  0  0  0  0  0  0  0  0  0  0
    7.9918    1.7814    0.0000 C   0  0  0  0  0  0  0  0  0  0  0  0
    7.1258    2.2814    0.0000 C   0  0  0  0  0  0  0  0  0  0  0  0
    3.6948   -1.0947    0.0000 C   0  0  0  0  0  0  0  0  0  0  0  0
    6.8115   -2.7735    0.0000 C   0  0  0  0  0  0  0  0  0  0  0  0
    8.8857    0.2468    0.0000 C   0  0  0  0  0  0  0  0  0  0  0  0
    3.2824   -3.0517    0.0000 C   0  0  0  0  0  0  0  0  0  0  0  0
    5.3498    2.2883    0.0000 C   0  0  0  0  0  0  0  0  0  0  0  0
    2.7443   -1.4053    0.0000 C   0  0  0  0  0  0  0  0  0  0  0  0
    2.5381   -2.3838    0.0000 C   0  0  0  0  0  0  0  0  0  0  0  0
    9.7918    0.7606    0.0000 C   0  0  0  0  0  0  0  0  0  0  0  0
    5.3417    3.3299    0.0000 C   0  0  0  0  0  0  0  0  0  0  0  0
    9.7918    1.8023    0.0000 C   0  0  0  0  0  0  0  0  0  0  0  0
    6.2438    3.8507    0.0000 C   0  0  0  0  0  0  0  0  0  0  0  0
    7.3306   -1.1518    0.0000 H   0  0  0  0  0  0  0  0  0  0  0  0
    5.1629   -3.8507    0.0000 H   0  0  0  0  0  0  0  0  0  0  0  0
    3.8227   -0.4880    0.0000 H   0  0  0  0  0  0  0  0  0  0  0  0
    6.6836   -3.3801    0.0000 H   0  0  0  0  0  0  0  0  0  0  0  0
    7.4181   -2.9013    0.0000 H   0  0  0  0  0  0  0  0  0  0  0  0
    6.9393   -2.1668    0.0000 H   0  0  0  0  0  0  0  0  0  0  0  0
    8.8786   -0.3732    0.0000 H   0  0  0  0  0  0  0  0  0  0  0  0
    3.1545   -3.6584    0.0000 H   0  0  0  0  0  0  0  0  0  0  0  0
    4.8164    1.9721    0.0000 H   0  0  0  0  0  0  0  0  0  0  0  0
    1.9488   -2.5764    0.0000 H   0  0  0  0  0  0  0  0  0  0  0  0
   10.3275    0.4486    0.0000 H   0  0  0  0  0  0  0  0  0  0  0  0
    4.8036    3.6378    0.0000 H   0  0  0  0  0  0  0  0  0  0  0  0
   10.3275    2.1143    0.0000 H   0  0  0  0  0  0  0  0  0  0  0  0
    6.2462    4.4707    0.0000 H   0  0  0  0  0  0  0  0  0  0  0  0
  1 23  1  0  0  0  0
  2  8  1  0  0  0  0
  2  9  1  0  0  0  0
  2 29  1  0  0  0  0
  3 12  1  0  0  0  0
  3 15  1  0  0  0  0
  3 30  1  0  0  0  0
  4  9  2  0  0  0  0
  4 10  1  0  0  0  0
  5 16  1  0  0  0  0
  5 27  2  0  0  0  0
  6 17  1  0  0  0  0
  6 28  2  0  0  0  0
  7  9  1  0  0  0  0
  7 11  1  0  0  0  0
  7 12  2  0  0  0  0
  8 10  1  0  0  0  0
  8 13  2  0  0  0  0
 10 14  2  0  0  0  0
 11 15  2  0  0  0  0
 11 18  1  0  0  0  0
 12 19  1  0  0  0  0
 13 16  1  0  0  0  0
 13 20  1  0  0  0  0
 14 17  1  0  0  0  0
 14 22  1  0  0  0  0
 15 21  1  0  0  0  0
 16 17  2  0  0  0  0
 18 23  2  0  0  0  0
 18 31  1  0  0  0  0
 19 32  1  0  0  0  0
 19 33  1  0  0  0  0
 19 34  1  0  0  0  0
 20 25  2  0  0  0  0
 20 35  1  0  0  0  0
 21 24  2  0  0  0  0
 21 36  1  0  0  0  0
 22 26  2  0  0  0  0
 22 37  1  0  0  0  0
 23 24  1  0  0  0  0
 24 38  1  0  0  0  0
 25 27  1  0  0  0  0
 25 39  1  0  0  0  0
 26 28  1  0  0  0  0
 26 40  1  0  0  0  0
 27 41  1  0  0  0  0
 28 42  1  0  0  0  0
M  END
> <PUBCHEM_COMPOUND_CID>
11960271

> <PUBCHEM_COMPOUND_CANONICALIZED>
1

> <PUBCHEM_CACTVS_COMPLEXITY>
589

> <PUBCHEM_CACTVS_HBOND_ACCEPTOR>
4

> <PUBCHEM_CACTVS_HBOND_DONOR>
2

> <PUBCHEM_CACTVS_ROTATABLE_BOND>
1

> <PUBCHEM_CACTVS_SUBSKEYS>
AAADccB7gQAAAAAAAAAAAAAAAAAAAWLAAAA8eIEAAAAAAFix/gAAHQAQAAAADAjBHww/0PbJkACgAzZnZACCgC2xEqAJ2SA4dJiIaOLA2dGUJAhokALIyCcQgMAOwACAQAQCACCAAQCACAQAQAAAAAAAAA==

> <PUBCHEM_IUPAC_OPENEYE_NAME>
2-(5-fluoro-2-methyl-1H-indol-3-yl)-1H-imidazo[4,5-f][1,10]phenanthroline

> <PUBCHEM_IUPAC_CAS_NAME>
2-(5-fluoro-2-methyl-1H-indol-3-yl)-1H-imidazo[4,5-f][1,10]phenanthroline

> <PUBCHEM_IUPAC_NAME_MARKUP>
2-(5-fluoro-2-methyl-1<I>H</I>-indol-3-yl)-1<I>H</I>-imidazo[4,5-f][1,10]phenanthroline

> <PUBCHEM_IUPAC_NAME>
2-(5-fluoro-2-methyl-1H-indol-3-yl)-1H-imidazo[4,5-f][1,10]phenanthroline

> <PUBCHEM_IUPAC_SYSTEMATIC_NAME>
2-(5-fluoranyl-2-methyl-1H-indol-3-yl)-1H-imidazo[4,5-f][1,10]phenanthroline

> <PUBCHEM_IUPAC_TRADITIONAL_NAME>
2-(5-fluoro-2-methyl-1H-indol-3-yl)-1H-imidazo[4,5-f][1,10]phenanthroline

> <PUBCHEM_IUPAC_INCHI>
InChI=1S/C22H14FN5/c1-11-17(15-10-12(23)6-7-16(15)26-11)22-27-20-13-4-2-8-24-18(13)19-14(21(20)28-22)5-3-9-25-19/h2-10,26H,1H3,(H,27,28)

> <PUBCHEM_IUPAC_INCHIKEY>
NIRXBXIPHUTNNI-UHFFFAOYSA-N

> <PUBCHEM_XLOGP3_AA>
4.3

> <PUBCHEM_EXACT_MASS>
367.12332363

> <PUBCHEM_MOLECULAR_FORMULA>
C22H14FN5

> <PUBCHEM_MOLECULAR_WEIGHT>
367.4

> <PUBCHEM_SMILES>
CC1=C(C2=C(N1)C=CC(=C2)F)C3=NC4=C5C=CC=NC5=C6C(=C4N3)C=CC=N6

> <PUBCHEM_CONNECTIVITY_SMILES>
CC1=C(C2=C(N1)C=CC(=C2)F)C3=NC4=C5C=CC=NC5=C6C(=C4N3)C=CC=N6

> <PUBCHEM_CACTVS_TPSA>
70.3

> <PUBCHEM_MONOISOTOPIC_WEIGHT>
367.12332363

> <PUBCHEM_TOTAL_CHARGE>
0

> <PUBCHEM_HEAVY_ATOM_COUNT>
28

> <PUBCHEM_ATOM_DEF_STEREO_COUNT>
0

> <PUBCHEM_ATOM_UDEF_STEREO_COUNT>
0

> <PUBCHEM_BOND_DEF_STEREO_COUNT>
0

> <PUBCHEM_BOND_UDEF_STEREO_COUNT>
0

> <PUBCHEM_ISOTOPIC_ATOM_COUNT>
0

> <PUBCHEM_COMPONENT_COUNT>
1

> <PUBCHEM_CACTVS_TAUTO_COUNT>
-1

> <PUBCHEM_COORDINATE_TYPE>
1
5
255

> <PUBCHEM_BONDANNOTATIONS>
10  14  8
11  15  8
11  18  8
13  16  8
13  20  8
14  17  8
14  22  8
15  21  8
16  17  8
18  23  8
2  8  8
2  9  8
20  25  8
21  24  8
22  26  8
23  24  8
25  27  8
26  28  8
3  12  8
3  15  8
4  10  8
4  9  8
5  16  8
5  27  8
6  17  8
6  28  8
7  11  8
7  12  8
8  10  8
8  13  8

$$$$
