11338033
  -OEChem-10172515062D

 42 44  0     0  0  0  0  0  0999 V2000
    2.0000   -1.2702    0.0000 Cl  0  0  0  0  0  0  0  0  0  0  0  0
    5.4641   -1.2702    0.0000 Cl  0  0  0  0  0  0  0  0  0  0  0  0
    6.5661    0.5304    0.0000 O   0  0  0  0  0  0  0  0  0  0  0  0
    2.8660    0.2298    0.0000 O   0  0  0  0  0  0  0  0  0  0  0  0
    9.9545    1.2506    0.0000 N   0  0  0  0  0  0  0  0  0  0  0  0
    7.1013    2.1777    0.0000 N   0  0  0  0  0  0  0  0  0  0  0  0
    5.0981    2.7686    0.0000 N   0  0  0  0  0  0  0  0  0  0  0  0
    4.5981    0.2298    0.0000 N   0  0  0  0  0  0  0  0  0  0  0  0
    4.0981    2.7686    0.0000 N   0  0  0  0  0  0  0  0  0  0  0  0
    8.0524    1.8687    0.0000 C   0  0  0  0  0  0  0  0  0  0  0  0
    8.7955    2.5378    0.0000 C   0  0  0  0  0  0  0  0  0  0  0  0
    8.2603    0.8905    0.0000 C   0  0  0  0  0  0  0  0  0  0  0  0
    9.7466    2.2288    0.0000 C   0  0  0  0  0  0  0  0  0  0  0  0
    9.2113    0.5815    0.0000 C   0  0  0  0  0  0  0  0  0  0  0  0
    6.3582    1.5086    0.0000 C   0  0  0  0  0  0  0  0  0  0  0  0
    5.4071    1.8176    0.0000 C   0  0  0  0  0  0  0  0  0  0  0  0
    4.5981    1.2298    0.0000 C   0  0  0  0  0  0  0  0  0  0  0  0
    3.7891    1.8176    0.0000 C   0  0  0  0  0  0  0  0  0  0  0  0
    3.7321   -0.2702    0.0000 C   0  0  0  0  0  0  0  0  0  0  0  0
    3.7321   -1.2702    0.0000 C   0  0  0  0  0  0  0  0  0  0  0  0
    2.8660   -1.7702    0.0000 C   0  0  0  0  0  0  0  0  0  0  0  0
    4.5981   -1.7702    0.0000 C   0  0  0  0  0  0  0  0  0  0  0  0
    2.8660   -2.7702    0.0000 C   0  0  0  0  0  0  0  0  0  0  0  0
    4.5981   -2.7702    0.0000 C   0  0  0  0  0  0  0  0  0  0  0  0
    3.7321   -3.2702    0.0000 C   0  0  0  0  0  0  0  0  0  0  0  0
    7.9235    2.4751    0.0000 H   0  0  0  0  0  0  0  0  0  0  0  0
    9.0866    3.0852    0.0000 H   0  0  0  0  0  0  0  0  0  0  0  0
    8.3069    2.9195    0.0000 H   0  0  0  0  0  0  0  0  0  0  0  0
    7.6406    0.8689    0.0000 H   0  0  0  0  0  0  0  0  0  0  0  0
    8.1740    0.2766    0.0000 H   0  0  0  0  0  0  0  0  0  0  0  0
   10.3662    2.2504    0.0000 H   0  0  0  0  0  0  0  0  0  0  0  0
    9.8328    2.8428    0.0000 H   0  0  0  0  0  0  0  0  0  0  0  0
    8.9203    0.0341    0.0000 H   0  0  0  0  0  0  0  0  0  0  0  0
    9.6999    0.1998    0.0000 H   0  0  0  0  0  0  0  0  0  0  0  0
   10.5441    1.0590    0.0000 H   0  0  0  0  0  0  0  0  0  0  0  0
    6.9724    2.7841    0.0000 H   0  0  0  0  0  0  0  0  0  0  0  0
    5.4625    3.2702    0.0000 H   0  0  0  0  0  0  0  0  0  0  0  0
    3.1994    1.6260    0.0000 H   0  0  0  0  0  0  0  0  0  0  0  0
    5.1350   -0.0802    0.0000 H   0  0  0  0  0  0  0  0  0  0  0  0
    2.3291   -3.0802    0.0000 H   0  0  0  0  0  0  0  0  0  0  0  0
    5.1350   -3.0802    0.0000 H   0  0  0  0  0  0  0  0  0  0  0  0
    3.7321   -3.8902    0.0000 H   0  0  0  0  0  0  0  0  0  0  0  0
  1 21  1  0  0  0  0
  2 22  1  0  0  0  0
  3 15  2  0  0  0  0
  4 19  2  0  0  0  0
  5 13  1  0  0  0  0
  5 14  1  0  0  0  0
  5 35  1  0  0  0  0
  6 10  1  0  0  0  0
  6 15  1  0  0  0  0
  6 36  1  0  0  0  0
  7  9  1  0  0  0  0
  7 16  1  0  0  0  0
  7 37  1  0  0  0  0
  8 17  1  0  0  0  0
  8 19  1  0  0  0  0
  8 39  1  0  0  0  0
  9 18  2  0  0  0  0
 10 11  1  0  0  0  0
 10 12  1  0  0  0  0
 10 26  1  0  0  0  0
 11 13  1  0  0  0  0
 11 27  1  0  0  0  0
 11 28  1  0  0  0  0
 12 14  1  0  0  0  0
 12 29  1  0  0  0  0
 12 30  1  0  0  0  0
 13 31  1  0  0  0  0
 13 32  1  0  0  0  0
 14 33  1  0  0  0  0
 14 34  1  0  0  0  0
 15 16  1  0  0  0  0
 16 17  2  0  0  0  0
 17 18  1  0  0  0  0
 18 38  1  0  0  0  0
 19 20  1  0  0  0  0
 20 21  2  0  0  0  0
 20 22  1  0  0  0  0
 21 23  1  0  0  0  0
 22 24  2  0  0  0  0
 23 25  2  0  0  0  0
 23 40  1  0  0  0  0
 24 25  1  0  0  0  0
 24 41  1  0  0  0  0
 25 42  1  0  0  0  0
M  END
> <PUBCHEM_COMPOUND_CID>
11338033

> <PUBCHEM_COMPOUND_CANONICALIZED>
1

> <PUBCHEM_CACTVS_COMPLEXITY>
479

> <PUBCHEM_CACTVS_HBOND_ACCEPTOR>
4

> <PUBCHEM_CACTVS_HBOND_DONOR>
4

> <PUBCHEM_CACTVS_ROTATABLE_BOND>
4

> <PUBCHEM_CACTVS_SUBSKEYS>
AAADceB7sAAGAAAAAAAAAAAAAAAAAWAAAAA8QAAAAAAAAAABwAAAHgIYAAAADCrBniQ8wJLjAACqAzV3UACSBAAnlwAYuaGodtgIYLrB19GUpYhgngDIzUcciACOAAAAAACBAAAAAAAAAQIAAAAAAAAAAA==

> <PUBCHEM_IUPAC_OPENEYE_NAME>
4-[(2,6-dichlorobenzoyl)amino]-N-(4-piperidyl)-1H-pyrazole-5-carboxamide

> <PUBCHEM_IUPAC_CAS_NAME>
4-[[(2,6-dichlorophenyl)-oxomethyl]amino]-N-(4-piperidinyl)-1H-pyrazole-5-carboxamide

> <PUBCHEM_IUPAC_NAME_MARKUP>
4-[(2,6-dichlorobenzoyl)amino]-<I>N</I>-piperidin-4-yl-1<I>H</I>-pyrazole-5-carboxamide

> <PUBCHEM_IUPAC_NAME>
4-[(2,6-dichlorobenzoyl)amino]-N-piperidin-4-yl-1H-pyrazole-5-carboxamide

> <PUBCHEM_IUPAC_SYSTEMATIC_NAME>
4-[[2,6-bis(chloranyl)phenyl]carbonylamino]-N-piperidin-4-yl-1H-pyrazole-5-carboxamide

> <PUBCHEM_IUPAC_TRADITIONAL_NAME>
4-[(2,6-dichlorobenzoyl)amino]-N-(4-piperidyl)-1H-pyrazole-5-carboxamide

> <PUBCHEM_IUPAC_INCHI>
InChI=1S/C16H17Cl2N5O2/c17-10-2-1-3-11(18)13(10)15(24)22-12-8-20-23-14(12)16(25)21-9-4-6-19-7-5-9/h1-3,8-9,19H,4-7H2,(H,20,23)(H,21,25)(H,22,24)

> <PUBCHEM_IUPAC_INCHIKEY>
OVPNQJVDAFNBDN-UHFFFAOYSA-N

> <PUBCHEM_XLOGP3_AA>
2.6

> <PUBCHEM_EXACT_MASS>
381.0759302

> <PUBCHEM_MOLECULAR_FORMULA>
C16H17Cl2N5O2

> <PUBCHEM_MOLECULAR_WEIGHT>
382.2

> <PUBCHEM_SMILES>
C1CNCCC1NC(=O)C2=C(C=NN2)NC(=O)C3=C(C=CC=C3Cl)Cl

> <PUBCHEM_CONNECTIVITY_SMILES>
C1CNCCC1NC(=O)C2=C(C=NN2)NC(=O)C3=C(C=CC=C3Cl)Cl

> <PUBCHEM_CACTVS_TPSA>
98.9

> <PUBCHEM_MONOISOTOPIC_WEIGHT>
381.0759302

> <PUBCHEM_TOTAL_CHARGE>
0

> <PUBCHEM_HEAVY_ATOM_COUNT>
25

> <PUBCHEM_ATOM_DEF_STEREO_COUNT>
0

> <PUBCHEM_ATOM_UDEF_STEREO_COUNT>
0

> <PUBCHEM_BOND_DEF_STEREO_COUNT>
0

> <PUBCHEM_BOND_UDEF_STEREO_COUNT>
0

> <PUBCHEM_ISOTOPIC_ATOM_COUNT>
0

> <PUBCHEM_COMPONENT_COUNT>
1

> <PUBCHEM_CACTVS_TAUTO_COUNT>
-1

> <PUBCHEM_COORDINATE_TYPE>
1
5
255

> <PUBCHEM_BONDANNOTATIONS>
16  17  8
17  18  8
20  21  8
20  22  8
21  23  8
22  24  8
23  25  8
24  25  8
7  16  8
7  9  8
9  18  8

$$$$
