135151360
  -OEChem-10172515092D

 48 52  0     0  0  0  0  0  0999 V2000
   10.6042    2.7058    0.0000 O   0  0  0  0  0  0  0  0  0  0  0  0
   11.2558   -0.9505    0.0000 O   0  0  0  0  0  0  0  0  0  0  0  0
    9.6722   -0.1458    0.0000 N   0  0  0  0  0  0  0  0  0  0  0  0
    9.6722   -1.7553    0.0000 N   0  0  0  0  0  0  0  0  0  0  0  0
    7.8600    0.0495    0.0000 N   0  0  0  0  0  0  0  0  0  0  0  0
    6.9939   -1.4505    0.0000 N   0  0  0  0  0  0  0  0  0  0  0  0
    6.1279    0.0495    0.0000 N   0  0  0  0  0  0  0  0  0  0  0  0
    3.5298   -0.4505    0.0000 N   0  0  0  0  0  0  0  0  0  0  0  0
    2.5836   -0.1458    0.0000 N   0  0  0  0  0  0  0  0  0  0  0  0
    2.5836   -1.7553    0.0000 N   0  0  0  0  0  0  0  0  0  0  0  0
    9.9829    0.8047    0.0000 C   0  0  0  0  0  0  0  0  0  0  0  0
    9.3150    1.5490    0.0000 C   0  0  0  0  0  0  0  0  0  0  0  0
   10.9614    1.0110    0.0000 C   0  0  0  0  0  0  0  0  0  0  0  0
    9.6257    2.4996    0.0000 C   0  0  0  0  0  0  0  0  0  0  0  0
   11.2720    1.9615    0.0000 C   0  0  0  0  0  0  0  0  0  0  0  0
    8.7260   -0.4505    0.0000 C   0  0  0  0  0  0  0  0  0  0  0  0
   10.2558   -0.9505    0.0000 C   0  0  0  0  0  0  0  0  0  0  0  0
    8.7260   -1.4505    0.0000 C   0  0  0  0  0  0  0  0  0  0  0  0
    9.9829   -2.7058    0.0000 C   0  0  0  0  0  0  0  0  0  0  0  0
    7.8600   -1.9505    0.0000 C   0  0  0  0  0  0  0  0  0  0  0  0
    6.9939   -0.4505    0.0000 C   0  0  0  0  0  0  0  0  0  0  0  0
    5.2619   -0.4505    0.0000 C   0  0  0  0  0  0  0  0  0  0  0  0
    5.2619   -1.4505    0.0000 C   0  0  0  0  0  0  0  0  0  0  0  0
    4.3959    0.0495    0.0000 C   0  0  0  0  0  0  0  0  0  0  0  0
    4.3959   -1.9505    0.0000 C   0  0  0  0  0  0  0  0  0  0  0  0
    3.5298   -1.4505    0.0000 C   0  0  0  0  0  0  0  0  0  0  0  0
    6.1279   -1.9505    0.0000 C   0  0  0  0  0  0  0  0  0  0  0  0
    2.0000   -0.9505    0.0000 C   0  0  0  0  0  0  0  0  0  0  0  0
   10.3969    0.3433    0.0000 H   0  0  0  0  0  0  0  0  0  0  0  0
    8.7681    1.8411    0.0000 H   0  0  0  0  0  0  0  0  0  0  0  0
    8.9325    1.0611    0.0000 H   0  0  0  0  0  0  0  0  0  0  0  0
   10.9819    0.3913    0.0000 H   0  0  0  0  0  0  0  0  0  0  0  0
   11.5752    0.9236    0.0000 H   0  0  0  0  0  0  0  0  0  0  0  0
    9.6051    3.1192    0.0000 H   0  0  0  0  0  0  0  0  0  0  0  0
    9.0119    2.5869    0.0000 H   0  0  0  0  0  0  0  0  0  0  0  0
   11.8190    1.6695    0.0000 H   0  0  0  0  0  0  0  0  0  0  0  0
   11.6546    2.4494    0.0000 H   0  0  0  0  0  0  0  0  0  0  0  0
    9.3935   -2.8984    0.0000 H   0  0  0  0  0  0  0  0  0  0  0  0
   10.1755   -3.2951    0.0000 H   0  0  0  0  0  0  0  0  0  0  0  0
   10.5722   -2.5132    0.0000 H   0  0  0  0  0  0  0  0  0  0  0  0
    7.8600   -2.5705    0.0000 H   0  0  0  0  0  0  0  0  0  0  0  0
    6.1279    0.6695    0.0000 H   0  0  0  0  0  0  0  0  0  0  0  0
    4.3959    0.6695    0.0000 H   0  0  0  0  0  0  0  0  0  0  0  0
    4.3959   -2.5705    0.0000 H   0  0  0  0  0  0  0  0  0  0  0  0
    5.8179   -2.4875    0.0000 H   0  0  0  0  0  0  0  0  0  0  0  0
    6.6648   -2.2605    0.0000 H   0  0  0  0  0  0  0  0  0  0  0  0
    6.4379   -1.4136    0.0000 H   0  0  0  0  0  0  0  0  0  0  0  0
    1.3800   -0.9505    0.0000 H   0  0  0  0  0  0  0  0  0  0  0  0
  1 14  1  0  0  0  0
  1 15  1  0  0  0  0
  2 17  2  0  0  0  0
  3 11  1  0  0  0  0
  3 16  1  0  0  0  0
  3 17  1  0  0  0  0
  4 17  1  0  0  0  0
  4 18  1  0  0  0  0
  4 19  1  0  0  0  0
  5 16  2  0  0  0  0
  5 21  1  0  0  0  0
  6 20  1  0  0  0  0
  6 21  2  0  0  0  0
  7 21  1  0  0  0  0
  7 22  1  0  0  0  0
  7 42  1  0  0  0  0
  8  9  1  0  0  0  0
  8 24  1  0  0  0  0
  8 26  1  0  0  0  0
  9 28  2  0  0  0  0
 10 26  2  0  0  0  0
 10 28  1  0  0  0  0
 11 12  1  0  0  0  0
 11 13  1  0  0  0  0
 11 29  1  0  0  0  0
 12 14  1  0  0  0  0
 12 30  1  0  0  0  0
 12 31  1  0  0  0  0
 13 15  1  0  0  0  0
 13 32  1  0  0  0  0
 13 33  1  0  0  0  0
 14 34  1  0  0  0  0
 14 35  1  0  0  0  0
 15 36  1  0  0  0  0
 15 37  1  0  0  0  0
 16 18  1  0  0  0  0
 18 20  2  0  0  0  0
 19 38  1  0  0  0  0
 19 39  1  0  0  0  0
 19 40  1  0  0  0  0
 20 41  1  0  0  0  0
 22 23  1  0  0  0  0
 22 24  2  0  0  0  0
 23 25  2  0  0  0  0
 23 27  1  0  0  0  0
 24 43  1  0  0  0  0
 25 26  1  0  0  0  0
 25 44  1  0  0  0  0
 27 45  1  0  0  0  0
 27 46  1  0  0  0  0
 27 47  1  0  0  0  0
 28 48  1  0  0  0  0
M  END
> <PUBCHEM_COMPOUND_CID>
135151360

> <PUBCHEM_COMPOUND_CANONICALIZED>
1

> <PUBCHEM_CACTVS_COMPLEXITY>
588

> <PUBCHEM_CACTVS_HBOND_ACCEPTOR>
7

> <PUBCHEM_CACTVS_HBOND_DONOR>
1

> <PUBCHEM_CACTVS_ROTATABLE_BOND>
3

> <PUBCHEM_CACTVS_SUBSKEYS>
AAADceB78AAAAAAAAAAAAAAAAAAAAWLAAAAsWJAAAAAAAFgB+AAAHgAYAAAADCjhmwY/8J/IFACqAjZndACShCsxkqAV2CA4dJiIaOLA2dGWpAhunwLIyCaQAAAKAAAAAAAAAAAAAAAAAAAAAAAAAAAAAA==

> <PUBCHEM_IUPAC_OPENEYE_NAME>
7-methyl-2-[(7-methyl-[1,2,4]triazolo[1,5-a]pyridin-6-yl)amino]-9-tetrahydropyran-4-yl-purin-8-one

> <PUBCHEM_IUPAC_CAS_NAME>
7-methyl-2-[(7-methyl-[1,2,4]triazolo[1,5-a]pyridin-6-yl)amino]-9-(4-oxanyl)-8-purinone

> <PUBCHEM_IUPAC_NAME_MARKUP>
7-methyl-2-[(7-methyl-[1,2,4]triazolo[1,5-a]pyridin-6-yl)amino]-9-(oxan-4-yl)purin-8-one

> <PUBCHEM_IUPAC_NAME>
7-methyl-2-[(7-methyl-[1,2,4]triazolo[1,5-a]pyridin-6-yl)amino]-9-(oxan-4-yl)purin-8-one

> <PUBCHEM_IUPAC_SYSTEMATIC_NAME>
7-methyl-2-[(7-methyl-[1,2,4]triazolo[1,5-a]pyridin-6-yl)amino]-9-(oxan-4-yl)purin-8-one

> <PUBCHEM_IUPAC_TRADITIONAL_NAME>
7-methyl-2-[(7-methyl-[1,2,4]triazolo[1,5-a]pyridin-6-yl)amino]-9-tetrahydropyran-4-yl-purin-8-one

> <PUBCHEM_IUPAC_INCHI>
InChI=1S/C18H20N8O2/c1-11-7-15-20-10-21-25(15)9-13(11)22-17-19-8-14-16(23-17)26(18(27)24(14)2)12-3-5-28-6-4-12/h7-10,12H,3-6H2,1-2H3,(H,19,22,23)

> <PUBCHEM_IUPAC_INCHIKEY>
XISVSTPEXYIKJL-UHFFFAOYSA-N

> <PUBCHEM_XLOGP3_AA>
1

> <PUBCHEM_EXACT_MASS>
380.17092191

> <PUBCHEM_MOLECULAR_FORMULA>
C18H20N8O2

> <PUBCHEM_MOLECULAR_WEIGHT>
380.4

> <PUBCHEM_SMILES>
CC1=CC2=NC=NN2C=C1NC3=NC=C4C(=N3)N(C(=O)N4C)C5CCOCC5

> <PUBCHEM_CONNECTIVITY_SMILES>
CC1=CC2=NC=NN2C=C1NC3=NC=C4C(=N3)N(C(=O)N4C)C5CCOCC5

> <PUBCHEM_CACTVS_TPSA>
101

> <PUBCHEM_MONOISOTOPIC_WEIGHT>
380.17092191

> <PUBCHEM_TOTAL_CHARGE>
0

> <PUBCHEM_HEAVY_ATOM_COUNT>
28

> <PUBCHEM_ATOM_DEF_STEREO_COUNT>
0

> <PUBCHEM_ATOM_UDEF_STEREO_COUNT>
0

> <PUBCHEM_BOND_DEF_STEREO_COUNT>
0

> <PUBCHEM_BOND_UDEF_STEREO_COUNT>
0

> <PUBCHEM_ISOTOPIC_ATOM_COUNT>
0

> <PUBCHEM_COMPONENT_COUNT>
1

> <PUBCHEM_CACTVS_TAUTO_COUNT>
-1

> <PUBCHEM_COORDINATE_TYPE>
1
5
255

> <PUBCHEM_BONDANNOTATIONS>
10  26  8
10  28  8
16  18  8
18  20  8
22  23  8
22  24  8
23  25  8
25  26  8
3  16  8
3  17  8
4  17  8
4  18  8
5  16  8
5  21  8
6  20  8
6  21  8
8  24  8
8  26  8
8  9  8
9  28  8

$$$$
