25262965
  -OEChem-10172515102D

 65 69  0     1  0  0  0  0  0999 V2000
    8.6721    3.7671    0.0000 O   0  0  0  0  0  0  0  0  0  0  0  0
   12.1362   -2.2329    0.0000 O   0  0  0  0  0  0  0  0  0  0  0  0
    2.5497   -2.7671    0.0000 O   0  0  0  0  0  0  0  0  0  0  0  0
    2.5381    0.2329    0.0000 O   0  0  0  0  0  0  0  0  0  0  0  0
    8.6721    1.7671    0.0000 N   0  0  3  0  0  0  0  0  0  0  0  0
   10.4041   -1.2329    0.0000 N   0  0  3  0  0  0  0  0  0  0  0  0
    9.5381    0.2671    0.0000 N   0  0  0  0  0  0  0  0  0  0  0  0
    8.6721   -1.2329    0.0000 N   0  0  0  0  0  0  0  0  0  0  0  0
    6.9121   -1.2676    0.0000 N   0  0  0  0  0  0  0  0  0  0  0  0
    9.5381    2.2671    0.0000 C   0  0  2  0  0  0  0  0  0  0  0  0
   10.4041   -2.2329    0.0000 C   0  0  2  0  0  0  0  0  0  0  0  0
    7.8061    2.2671    0.0000 C   0  0  0  0  0  0  0  0  0  0  0  0
    9.5381    3.2671    0.0000 C   0  0  0  0  0  0  0  0  0  0  0  0
    8.6721    0.7671    0.0000 C   0  0  0  0  0  0  0  0  0  0  0  0
   11.2702   -0.7329    0.0000 C   0  0  0  0  0  0  0  0  0  0  0  0
   11.2702   -2.7329    0.0000 C   0  0  0  0  0  0  0  0  0  0  0  0
    7.8061    3.2671    0.0000 C   0  0  0  0  0  0  0  0  0  0  0  0
    9.5381   -0.7329    0.0000 C   0  0  0  0  0  0  0  0  0  0  0  0
   12.1362   -1.2329    0.0000 C   0  0  0  0  0  0  0  0  0  0  0  0
   10.4041    1.7671    0.0000 C   0  0  0  0  0  0  0  0  0  0  0  0
    7.8061    0.2671    0.0000 C   0  0  0  0  0  0  0  0  0  0  0  0
    9.5381   -2.7329    0.0000 C   0  0  0  0  0  0  0  0  0  0  0  0
    7.8061   -0.7329    0.0000 C   0  0  0  0  0  0  0  0  0  0  0  0
    6.9121    0.8017    0.0000 C   0  0  0  0  0  0  0  0  0  0  0  0
    6.0061   -0.7537    0.0000 C   0  0  0  0  0  0  0  0  0  0  0  0
    6.0061    0.2879    0.0000 C   0  0  0  0  0  0  0  0  0  0  0  0
    5.1420   -1.2571    0.0000 C   0  0  0  0  0  0  0  0  0  0  0  0
    4.2740   -0.7604    0.0000 C   0  0  0  0  0  0  0  0  0  0  0  0
    5.1458   -2.2571    0.0000 C   0  0  0  0  0  0  0  0  0  0  0  0
    3.4099   -1.2638    0.0000 C   0  0  0  0  0  0  0  0  0  0  0  0
    3.4138   -2.2638    0.0000 C   0  0  0  0  0  0  0  0  0  0  0  0
    4.2817   -2.7604    0.0000 C   0  0  0  0  0  0  0  0  0  0  0  0
    2.5420   -0.7671    0.0000 C   0  0  0  0  0  0  0  0  0  0  0  0
    2.5535   -3.7671    0.0000 C   0  0  0  0  0  0  0  0  0  0  0  0
    9.5381    1.6471    0.0000 H   0  0  0  0  0  0  0  0  0  0  0  0
    9.8672   -1.9229    0.0000 H   0  0  0  0  0  0  0  0  0  0  0  0
    7.1955    2.3747    0.0000 H   0  0  0  0  0  0  0  0  0  0  0  0
    7.5940    1.6845    0.0000 H   0  0  0  0  0  0  0  0  0  0  0  0
   10.1487    3.1594    0.0000 H   0  0  0  0  0  0  0  0  0  0  0  0
    9.7502    3.8497    0.0000 H   0  0  0  0  0  0  0  0  0  0  0  0
   11.6687   -0.2580    0.0000 H   0  0  0  0  0  0  0  0  0  0  0  0
   10.8716   -0.2580    0.0000 H   0  0  0  0  0  0  0  0  0  0  0  0
   10.8716   -3.2079    0.0000 H   0  0  0  0  0  0  0  0  0  0  0  0
   11.6687   -3.2079    0.0000 H   0  0  0  0  0  0  0  0  0  0  0  0
    7.5940    3.8497    0.0000 H   0  0  0  0  0  0  0  0  0  0  0  0
    7.1955    3.1594    0.0000 H   0  0  0  0  0  0  0  0  0  0  0  0
   12.7468   -1.3406    0.0000 H   0  0  0  0  0  0  0  0  0  0  0  0
   12.3482   -0.6503    0.0000 H   0  0  0  0  0  0  0  0  0  0  0  0
   10.0941    1.2301    0.0000 H   0  0  0  0  0  0  0  0  0  0  0  0
   10.9411    1.4571    0.0000 H   0  0  0  0  0  0  0  0  0  0  0  0
   10.7141    2.3040    0.0000 H   0  0  0  0  0  0  0  0  0  0  0  0
    9.2281   -2.1960    0.0000 H   0  0  0  0  0  0  0  0  0  0  0  0
    9.0012   -3.0429    0.0000 H   0  0  0  0  0  0  0  0  0  0  0  0
    9.8481   -3.2699    0.0000 H   0  0  0  0  0  0  0  0  0  0  0  0
    6.9193    1.4217    0.0000 H   0  0  0  0  0  0  0  0  0  0  0  0
    5.4703    0.6000    0.0000 H   0  0  0  0  0  0  0  0  0  0  0  0
    4.2716   -0.1404    0.0000 H   0  0  0  0  0  0  0  0  0  0  0  0
    5.6840   -2.5650    0.0000 H   0  0  0  0  0  0  0  0  0  0  0  0
    4.2841   -3.3804    0.0000 H   0  0  0  0  0  0  0  0  0  0  0  0
    1.9310   -0.6618    0.0000 H   0  0  0  0  0  0  0  0  0  0  0  0
    2.3322   -1.3505    0.0000 H   0  0  0  0  0  0  0  0  0  0  0  0
    2.0000    0.5408    0.0000 H   0  0  0  0  0  0  0  0  0  0  0  0
    1.9336   -3.7695    0.0000 H   0  0  0  0  0  0  0  0  0  0  0  0
    2.5559   -4.3871    0.0000 H   0  0  0  0  0  0  0  0  0  0  0  0
    3.1735   -3.7647    0.0000 H   0  0  0  0  0  0  0  0  0  0  0  0
  1 13  1  0  0  0  0
  1 17  1  0  0  0  0
  2 16  1  0  0  0  0
  2 19  1  0  0  0  0
  3 31  1  0  0  0  0
  3 34  1  0  0  0  0
  4 33  1  0  0  0  0
  4 62  1  0  0  0  0
  5 10  1  0  0  0  0
  5 12  1  0  0  0  0
  5 14  1  0  0  0  0
  6 11  1  0  0  0  0
  6 15  1  0  0  0  0
  6 18  1  0  0  0  0
  7 14  2  0  0  0  0
  7 18  1  0  0  0  0
  8 18  2  0  0  0  0
  8 23  1  0  0  0  0
  9 23  1  0  0  0  0
  9 25  2  0  0  0  0
 10 13  1  0  0  0  0
 10 20  1  6  0  0  0
 10 35  1  0  0  0  0
 11 16  1  0  0  0  0
 11 22  1  6  0  0  0
 11 36  1  0  0  0  0
 12 17  1  0  0  0  0
 12 37  1  0  0  0  0
 12 38  1  0  0  0  0
 13 39  1  0  0  0  0
 13 40  1  0  0  0  0
 14 21  1  0  0  0  0
 15 19  1  0  0  0  0
 15 41  1  0  0  0  0
 15 42  1  0  0  0  0
 16 43  1  0  0  0  0
 16 44  1  0  0  0  0
 17 45  1  0  0  0  0
 17 46  1  0  0  0  0
 19 47  1  0  0  0  0
 19 48  1  0  0  0  0
 20 49  1  0  0  0  0
 20 50  1  0  0  0  0
 20 51  1  0  0  0  0
 21 23  2  0  0  0  0
 21 24  1  0  0  0  0
 22 52  1  0  0  0  0
 22 53  1  0  0  0  0
 22 54  1  0  0  0  0
 24 26  2  0  0  0  0
 24 55  1  0  0  0  0
 25 26  1  0  0  0  0
 25 27  1  0  0  0  0
 26 56  1  0  0  0  0
 27 28  2  0  0  0  0
 27 29  1  0  0  0  0
 28 30  1  0  0  0  0
 28 57  1  0  0  0  0
 29 32  2  0  0  0  0
 29 58  1  0  0  0  0
 30 31  2  0  0  0  0
 30 33  1  0  0  0  0
 31 32  1  0  0  0  0
 32 59  1  0  0  0  0
 33 60  1  0  0  0  0
 33 61  1  0  0  0  0
 34 63  1  0  0  0  0
 34 64  1  0  0  0  0
 34 65  1  0  0  0  0
M  END
> <PUBCHEM_COMPOUND_CID>
25262965

> <PUBCHEM_COMPOUND_CANONICALIZED>
1

> <PUBCHEM_CACTVS_COMPLEXITY>
659

> <PUBCHEM_CACTVS_HBOND_ACCEPTOR>
9

> <PUBCHEM_CACTVS_HBOND_DONOR>
1

> <PUBCHEM_CACTVS_ROTATABLE_BOND>
5

> <PUBCHEM_CACTVS_SUBSKEYS>
AAADceB7uAAAAAAAAAAAAAAAAAAAAAAAAAA8WLFiAAAAAACx/AAAHgAACAAADCzhnwYztt8IFgCgAyZiZACCiCkhIqAJmCA+bJiOP+LE+duHdChtwBPY+CeQ0OMOIAACAAAIAABAAAQAABAAAAAAAAAAAA==

> <PUBCHEM_IUPAC_OPENEYE_NAME>
[5-[2,4-bis[(3S)-3-methylmorpholin-4-yl]pyrido[2,3-d]pyrimidin-7-yl]-2-methoxy-phenyl]methanol

> <PUBCHEM_IUPAC_CAS_NAME>
[5-[2,4-bis[(3S)-3-methyl-4-morpholinyl]-7-pyrido[2,3-d]pyrimidinyl]-2-methoxyphenyl]methanol

> <PUBCHEM_IUPAC_NAME_MARKUP>
[5-[2,4-bis[(3<I>S</I>)-3-methylmorpholin-4-yl]pyrido[2,3-d]pyrimidin-7-yl]-2-methoxyphenyl]methanol

> <PUBCHEM_IUPAC_NAME>
[5-[2,4-bis[(3S)-3-methylmorpholin-4-yl]pyrido[2,3-d]pyrimidin-7-yl]-2-methoxyphenyl]methanol

> <PUBCHEM_IUPAC_SYSTEMATIC_NAME>
[5-[2,4-bis[(3S)-3-methylmorpholin-4-yl]pyrido[2,3-d]pyrimidin-7-yl]-2-methoxy-phenyl]methanol

> <PUBCHEM_IUPAC_TRADITIONAL_NAME>
[5-[2,4-bis[(3S)-3-methylmorpholino]pyrido[2,3-d]pyrimidin-7-yl]-2-methoxy-phenyl]methanol

> <PUBCHEM_IUPAC_INCHI>
InChI=1S/C25H31N5O4/c1-16-14-33-10-8-29(16)24-20-5-6-21(18-4-7-22(32-3)19(12-18)13-31)26-23(20)27-25(28-24)30-9-11-34-15-17(30)2/h4-7,12,16-17,31H,8-11,13-15H2,1-3H3/t16-,17-/m0/s1

> <PUBCHEM_IUPAC_INCHIKEY>
KVLFRAWTRWDEDF-IRXDYDNUSA-N

> <PUBCHEM_XLOGP3_AA>
2.6

> <PUBCHEM_EXACT_MASS>
465.23760449

> <PUBCHEM_MOLECULAR_FORMULA>
C25H31N5O4

> <PUBCHEM_MOLECULAR_WEIGHT>
465.5

> <PUBCHEM_SMILES>
C[C@H]1COCCN1C2=NC(=NC3=C2C=CC(=N3)C4=CC(=C(C=C4)OC)CO)N5CCOC[C@@H]5C

> <PUBCHEM_CONNECTIVITY_SMILES>
CC1COCCN1C2=NC(=NC3=C2C=CC(=N3)C4=CC(=C(C=C4)OC)CO)N5CCOCC5C

> <PUBCHEM_CACTVS_TPSA>
93.1

> <PUBCHEM_MONOISOTOPIC_WEIGHT>
465.23760449

> <PUBCHEM_TOTAL_CHARGE>
0

> <PUBCHEM_HEAVY_ATOM_COUNT>
34

> <PUBCHEM_ATOM_DEF_STEREO_COUNT>
2

> <PUBCHEM_ATOM_UDEF_STEREO_COUNT>
0

> <PUBCHEM_BOND_DEF_STEREO_COUNT>
0

> <PUBCHEM_BOND_UDEF_STEREO_COUNT>
0

> <PUBCHEM_ISOTOPIC_ATOM_COUNT>
0

> <PUBCHEM_COMPONENT_COUNT>
1

> <PUBCHEM_CACTVS_TAUTO_COUNT>
-1

> <PUBCHEM_COORDINATE_TYPE>
1
5
255

> <PUBCHEM_BONDANNOTATIONS>
10  20  6
11  22  6
14  21  8
21  23  8
21  24  8
24  26  8
25  26  8
27  28  8
27  29  8
28  30  8
29  32  8
30  31  8
31  32  8
7  14  8
7  18  8
8  18  8
8  23  8
9  23  8
9  25  8

$$$$
