10138980
  -OEChem-10172515122D

 55 58  0     0  0  0  0  0  0999 V2000
   10.6603   -1.0600    0.0000 S   0  0  0  0  0  0  0  0  0  0  0  0
   11.1603   -0.1940    0.0000 O   0  0  0  0  0  0  0  0  0  0  0  0
   10.1603   -1.9260    0.0000 O   0  0  0  0  0  0  0  0  0  0  0  0
    3.7321    0.9400    0.0000 O   0  0  0  0  0  0  0  0  0  0  0  0
   11.5263   -1.5600    0.0000 N   0  0  0  0  0  0  0  0  0  0  0  0
   13.2583   -2.5600    0.0000 N   0  0  0  0  0  0  0  0  0  0  0  0
    6.3301    0.4400    0.0000 N   0  0  0  0  0  0  0  0  0  0  0  0
    6.3301    2.4400    0.0000 N   0  0  0  0  0  0  0  0  0  0  0  0
    4.5981   -0.5600    0.0000 N   0  0  0  0  0  0  0  0  0  0  0  0
    4.5981    2.4400    0.0000 N   0  0  0  0  0  0  0  0  0  0  0  0
    2.0000   -1.0600    0.0000 N   0  0  0  0  0  0  0  0  0  0  0  0
   11.5263   -2.5600    0.0000 C   0  0  0  0  0  0  0  0  0  0  0  0
   12.3923   -1.0600    0.0000 C   0  0  0  0  0  0  0  0  0  0  0  0
   12.3923   -3.0600    0.0000 C   0  0  0  0  0  0  0  0  0  0  0  0
   13.2583   -1.5600    0.0000 C   0  0  0  0  0  0  0  0  0  0  0  0
   14.1244   -3.0600    0.0000 C   0  0  0  0  0  0  0  0  0  0  0  0
    9.7942   -0.5600    0.0000 C   0  0  0  0  0  0  0  0  0  0  0  0
    9.7942    0.4400    0.0000 C   0  0  0  0  0  0  0  0  0  0  0  0
    8.9282   -1.0600    0.0000 C   0  0  0  0  0  0  0  0  0  0  0  0
    8.9282    0.9400    0.0000 C   0  0  0  0  0  0  0  0  0  0  0  0
    8.0622   -0.5600    0.0000 C   0  0  0  0  0  0  0  0  0  0  0  0
    8.0622    0.4400    0.0000 C   0  0  0  0  0  0  0  0  0  0  0  0
    7.1962    0.9400    0.0000 C   0  0  0  0  0  0  0  0  0  0  0  0
    7.1962    1.9400    0.0000 C   0  0  0  0  0  0  0  0  0  0  0  0
    5.4641    0.9400    0.0000 C   0  0  0  0  0  0  0  0  0  0  0  0
    5.4641    1.9400    0.0000 C   0  0  0  0  0  0  0  0  0  0  0  0
    4.5981    0.4400    0.0000 C   0  0  0  0  0  0  0  0  0  0  0  0
    3.7321   -1.0600    0.0000 C   0  0  0  0  0  0  0  0  0  0  0  0
    3.7321   -2.0600    0.0000 C   0  0  0  0  0  0  0  0  0  0  0  0
    2.8660   -0.5600    0.0000 C   0  0  0  0  0  0  0  0  0  0  0  0
    2.8660   -2.5600    0.0000 C   0  0  0  0  0  0  0  0  0  0  0  0
    2.0000   -2.0600    0.0000 C   0  0  0  0  0  0  0  0  0  0  0  0
   10.9157   -2.4523    0.0000 H   0  0  0  0  0  0  0  0  0  0  0  0
   11.3142   -3.1426    0.0000 H   0  0  0  0  0  0  0  0  0  0  0  0
   12.7908   -0.5851    0.0000 H   0  0  0  0  0  0  0  0  0  0  0  0
   11.9938   -0.5851    0.0000 H   0  0  0  0  0  0  0  0  0  0  0  0
   11.9938   -3.5350    0.0000 H   0  0  0  0  0  0  0  0  0  0  0  0
   12.7908   -3.5350    0.0000 H   0  0  0  0  0  0  0  0  0  0  0  0
   13.8689   -1.6677    0.0000 H   0  0  0  0  0  0  0  0  0  0  0  0
   13.4704   -0.9774    0.0000 H   0  0  0  0  0  0  0  0  0  0  0  0
   13.8144   -3.5969    0.0000 H   0  0  0  0  0  0  0  0  0  0  0  0
   14.6613   -3.3700    0.0000 H   0  0  0  0  0  0  0  0  0  0  0  0
   14.4344   -2.5231    0.0000 H   0  0  0  0  0  0  0  0  0  0  0  0
   10.3312    0.7500    0.0000 H   0  0  0  0  0  0  0  0  0  0  0  0
    8.9282   -1.6800    0.0000 H   0  0  0  0  0  0  0  0  0  0  0  0
    8.9282    1.5600    0.0000 H   0  0  0  0  0  0  0  0  0  0  0  0
    7.5252   -0.8700    0.0000 H   0  0  0  0  0  0  0  0  0  0  0  0
    7.7331    2.2500    0.0000 H   0  0  0  0  0  0  0  0  0  0  0  0
    5.1350   -0.8700    0.0000 H   0  0  0  0  0  0  0  0  0  0  0  0
    4.5981    3.0600    0.0000 H   0  0  0  0  0  0  0  0  0  0  0  0
    4.0611    2.1300    0.0000 H   0  0  0  0  0  0  0  0  0  0  0  0
    4.2690   -2.3700    0.0000 H   0  0  0  0  0  0  0  0  0  0  0  0
    2.8660    0.0600    0.0000 H   0  0  0  0  0  0  0  0  0  0  0  0
    2.8660   -3.1800    0.0000 H   0  0  0  0  0  0  0  0  0  0  0  0
    1.4631   -2.3700    0.0000 H   0  0  0  0  0  0  0  0  0  0  0  0
  1  2  2  0  0  0  0
  1  3  2  0  0  0  0
  1  5  1  0  0  0  0
  1 17  1  0  0  0  0
  4 27  2  0  0  0  0
  5 12  1  0  0  0  0
  5 13  1  0  0  0  0
  6 14  1  0  0  0  0
  6 15  1  0  0  0  0
  6 16  1  0  0  0  0
  7 23  1  0  0  0  0
  7 25  2  0  0  0  0
  8 24  1  0  0  0  0
  8 26  2  0  0  0  0
  9 27  1  0  0  0  0
  9 28  1  0  0  0  0
  9 49  1  0  0  0  0
 10 26  1  0  0  0  0
 10 50  1  0  0  0  0
 10 51  1  0  0  0  0
 11 30  1  0  0  0  0
 11 32  2  0  0  0  0
 12 14  1  0  0  0  0
 12 33  1  0  0  0  0
 12 34  1  0  0  0  0
 13 15  1  0  0  0  0
 13 35  1  0  0  0  0
 13 36  1  0  0  0  0
 14 37  1  0  0  0  0
 14 38  1  0  0  0  0
 15 39  1  0  0  0  0
 15 40  1  0  0  0  0
 16 41  1  0  0  0  0
 16 42  1  0  0  0  0
 16 43  1  0  0  0  0
 17 18  2  0  0  0  0
 17 19  1  0  0  0  0
 18 20  1  0  0  0  0
 18 44  1  0  0  0  0
 19 21  2  0  0  0  0
 19 45  1  0  0  0  0
 20 22  2  0  0  0  0
 20 46  1  0  0  0  0
 21 22  1  0  0  0  0
 21 47  1  0  0  0  0
 22 23  1  0  0  0  0
 23 24  2  0  0  0  0
 24 48  1  0  0  0  0
 25 26  1  0  0  0  0
 25 27  1  0  0  0  0
 28 29  1  0  0  0  0
 28 30  2  0  0  0  0
 29 31  2  0  0  0  0
 29 52  1  0  0  0  0
 30 53  1  0  0  0  0
 31 32  1  0  0  0  0
 31 54  1  0  0  0  0
 32 55  1  0  0  0  0
M  END
> <PUBCHEM_COMPOUND_CID>
10138980

> <PUBCHEM_COMPOUND_CANONICALIZED>
1

> <PUBCHEM_CACTVS_COMPLEXITY>
730

> <PUBCHEM_CACTVS_HBOND_ACCEPTOR>
9

> <PUBCHEM_CACTVS_HBOND_DONOR>
2

> <PUBCHEM_CACTVS_ROTATABLE_BOND>
5

> <PUBCHEM_CACTVS_SUBSKEYS>
AAADceB7sABAAAAAAAAAAAAAAAAAAAAAAAA8WLEAAAAAAAAB8AAAHgQQQAAADAjB3gQ/8ZPIEAKoAzd3dHDCgD03EiAI2Dm4dNiIYOrA0bGUIIhglALIyGcQgIAOEAAAAAAAAAAgAAAAAAAAAAAAAAAAAA==

> <PUBCHEM_IUPAC_OPENEYE_NAME>
3-amino-6-[4-(4-methylpiperazin-1-yl)sulfonylphenyl]-N-(3-pyridyl)pyrazine-2-carboxamide

> <PUBCHEM_IUPAC_CAS_NAME>
3-amino-6-[4-[(4-methyl-1-piperazinyl)sulfonyl]phenyl]-N-(3-pyridinyl)-2-pyrazinecarboxamide

> <PUBCHEM_IUPAC_NAME_MARKUP>
3-amino-6-[4-(4-methylpiperazin-1-yl)sulfonylphenyl]-<I>N</I>-pyridin-3-ylpyrazine-2-carboxamide

> <PUBCHEM_IUPAC_NAME>
3-amino-6-[4-(4-methylpiperazin-1-yl)sulfonylphenyl]-N-pyridin-3-ylpyrazine-2-carboxamide

> <PUBCHEM_IUPAC_SYSTEMATIC_NAME>
3-azanyl-6-[4-(4-methylpiperazin-1-yl)sulfonylphenyl]-N-pyridin-3-yl-pyrazine-2-carboxamide

> <PUBCHEM_IUPAC_TRADITIONAL_NAME>
3-amino-6-[4-(4-methylpiperazino)sulfonylphenyl]-N-(3-pyridyl)pyrazinamide

> <PUBCHEM_IUPAC_INCHI>
InChI=1S/C21H23N7O3S/c1-27-9-11-28(12-10-27)32(30,31)17-6-4-15(5-7-17)18-14-24-20(22)19(26-18)21(29)25-16-3-2-8-23-13-16/h2-8,13-14H,9-12H2,1H3,(H2,22,24)(H,25,29)

> <PUBCHEM_IUPAC_INCHIKEY>
FHCSBLWRGCOVPT-UHFFFAOYSA-N

> <PUBCHEM_XLOGP3_AA>
0.7

> <PUBCHEM_EXACT_MASS>
453.15830879

> <PUBCHEM_MOLECULAR_FORMULA>
C21H23N7O3S

> <PUBCHEM_MOLECULAR_WEIGHT>
453.5

> <PUBCHEM_SMILES>
CN1CCN(CC1)S(=O)(=O)C2=CC=C(C=C2)C3=CN=C(C(=N3)C(=O)NC4=CN=CC=C4)N

> <PUBCHEM_CONNECTIVITY_SMILES>
CN1CCN(CC1)S(=O)(=O)C2=CC=C(C=C2)C3=CN=C(C(=N3)C(=O)NC4=CN=CC=C4)N

> <PUBCHEM_CACTVS_TPSA>
143

> <PUBCHEM_MONOISOTOPIC_WEIGHT>
453.15830879

> <PUBCHEM_TOTAL_CHARGE>
0

> <PUBCHEM_HEAVY_ATOM_COUNT>
32

> <PUBCHEM_ATOM_DEF_STEREO_COUNT>
0

> <PUBCHEM_ATOM_UDEF_STEREO_COUNT>
0

> <PUBCHEM_BOND_DEF_STEREO_COUNT>
0

> <PUBCHEM_BOND_UDEF_STEREO_COUNT>
0

> <PUBCHEM_ISOTOPIC_ATOM_COUNT>
0

> <PUBCHEM_COMPONENT_COUNT>
1

> <PUBCHEM_CACTVS_TAUTO_COUNT>
-1

> <PUBCHEM_COORDINATE_TYPE>
1
5
255

> <PUBCHEM_BONDANNOTATIONS>
11  30  8
11  32  8
17  18  8
17  19  8
18  20  8
19  21  8
20  22  8
21  22  8
23  24  8
25  26  8
28  29  8
28  30  8
29  31  8
31  32  8
7  23  8
7  25  8
8  24  8
8  26  8

$$$$
