70817911
  -OEChem-10172515062D

 50 54  0     0  0  0  0  0  0999 V2000
    3.4030   -0.8269    0.0000 O   0  0  0  0  0  0  0  0  0  0  0  0
   11.5309    2.1732    0.0000 N   0  0  0  0  0  0  0  0  0  0  0  0
    6.0010    0.6731    0.0000 N   0  0  0  0  0  0  0  0  0  0  0  0
    6.9473    1.9779    0.0000 N   0  0  0  0  0  0  0  0  0  0  0  0
    5.1350    0.1731    0.0000 N   0  0  0  0  0  0  0  0  0  0  0  0
    2.5369    0.6731    0.0000 N   0  0  0  0  0  0  0  0  0  0  0  0
   11.5309    1.1732    0.0000 C   0  0  0  0  0  0  0  0  0  0  0  0
   11.5309    0.1731    0.0000 C   0  0  0  0  0  0  0  0  0  0  0  0
   12.5309    1.1732    0.0000 C   0  0  0  0  0  0  0  0  0  0  0  0
   12.5309    0.1731    0.0000 C   0  0  0  0  0  0  0  0  0  0  0  0
   10.5309    1.1732    0.0000 C   0  0  0  0  0  0  0  0  0  0  0  0
   10.0309    0.3071    0.0000 C   0  0  0  0  0  0  0  0  0  0  0  0
   10.0309    2.0392    0.0000 C   0  0  0  0  0  0  0  0  0  0  0  0
    9.0309    0.3071    0.0000 C   0  0  0  0  0  0  0  0  0  0  0  0
    9.0309    2.0392    0.0000 C   0  0  0  0  0  0  0  0  0  0  0  0
    8.5309    1.1732    0.0000 C   0  0  0  0  0  0  0  0  0  0  0  0
    7.5309    1.1732    0.0000 C   0  0  0  0  0  0  0  0  0  0  0  0
    6.9473    0.3684    0.0000 C   0  0  0  0  0  0  0  0  0  0  0  0
    6.0010    1.6732    0.0000 C   0  0  0  0  0  0  0  0  0  0  0  0
    7.2579   -0.5821    0.0000 C   0  0  0  0  0  0  0  0  0  0  0  0
    5.1350    2.1732    0.0000 C   0  0  0  0  0  0  0  0  0  0  0  0
    8.2364   -0.7883    0.0000 C   0  0  0  0  0  0  0  0  0  0  0  0
    6.5901   -1.3264    0.0000 C   0  0  0  0  0  0  0  0  0  0  0  0
    4.2690    0.6731    0.0000 C   0  0  0  0  0  0  0  0  0  0  0  0
    4.2690    1.6732    0.0000 C   0  0  0  0  0  0  0  0  0  0  0  0
    8.5471   -1.7388    0.0000 C   0  0  0  0  0  0  0  0  0  0  0  0
    6.9007   -2.2769    0.0000 C   0  0  0  0  0  0  0  0  0  0  0  0
    7.8792   -2.4832    0.0000 C   0  0  0  0  0  0  0  0  0  0  0  0
    3.4030    0.1731    0.0000 C   0  0  0  0  0  0  0  0  0  0  0  0
   10.9109    0.1731    0.0000 H   0  0  0  0  0  0  0  0  0  0  0  0
   11.5309   -0.4469    0.0000 H   0  0  0  0  0  0  0  0  0  0  0  0
   13.1509    1.1732    0.0000 H   0  0  0  0  0  0  0  0  0  0  0  0
   12.5309    1.7932    0.0000 H   0  0  0  0  0  0  0  0  0  0  0  0
   12.5309   -0.4469    0.0000 H   0  0  0  0  0  0  0  0  0  0  0  0
   13.1509    0.1731    0.0000 H   0  0  0  0  0  0  0  0  0  0  0  0
   12.0678    2.4832    0.0000 H   0  0  0  0  0  0  0  0  0  0  0  0
   10.9939    2.4832    0.0000 H   0  0  0  0  0  0  0  0  0  0  0  0
   10.3409   -0.2298    0.0000 H   0  0  0  0  0  0  0  0  0  0  0  0
   10.3409    2.5761    0.0000 H   0  0  0  0  0  0  0  0  0  0  0  0
    8.7209   -0.2298    0.0000 H   0  0  0  0  0  0  0  0  0  0  0  0
    8.7209    2.5761    0.0000 H   0  0  0  0  0  0  0  0  0  0  0  0
    5.1350    2.7932    0.0000 H   0  0  0  0  0  0  0  0  0  0  0  0
    8.6505   -0.3269    0.0000 H   0  0  0  0  0  0  0  0  0  0  0  0
    5.9834   -1.1986    0.0000 H   0  0  0  0  0  0  0  0  0  0  0  0
    3.7321    1.9832    0.0000 H   0  0  0  0  0  0  0  0  0  0  0  0
    9.1538   -1.8667    0.0000 H   0  0  0  0  0  0  0  0  0  0  0  0
    6.4867   -2.7384    0.0000 H   0  0  0  0  0  0  0  0  0  0  0  0
    8.0719   -3.0725    0.0000 H   0  0  0  0  0  0  0  0  0  0  0  0
    2.0000    0.3631    0.0000 H   0  0  0  0  0  0  0  0  0  0  0  0
    2.5369    1.2932    0.0000 H   0  0  0  0  0  0  0  0  0  0  0  0
  1 29  2  0  0  0  0
  2  7  1  0  0  0  0
  2 36  1  0  0  0  0
  2 37  1  0  0  0  0
  3  5  1  0  0  0  0
  3 18  1  0  0  0  0
  3 19  1  0  0  0  0
  4 17  1  0  0  0  0
  4 19  2  0  0  0  0
  5 24  2  0  0  0  0
  6 29  1  0  0  0  0
  6 49  1  0  0  0  0
  6 50  1  0  0  0  0
  7  8  1  0  0  0  0
  7  9  1  0  0  0  0
  7 11  1  0  0  0  0
  8 10  1  0  0  0  0
  8 30  1  0  0  0  0
  8 31  1  0  0  0  0
  9 10  1  0  0  0  0
  9 32  1  0  0  0  0
  9 33  1  0  0  0  0
 10 34  1  0  0  0  0
 10 35  1  0  0  0  0
 11 12  2  0  0  0  0
 11 13  1  0  0  0  0
 12 14  1  0  0  0  0
 12 38  1  0  0  0  0
 13 15  2  0  0  0  0
 13 39  1  0  0  0  0
 14 16  2  0  0  0  0
 14 40  1  0  0  0  0
 15 16  1  0  0  0  0
 15 41  1  0  0  0  0
 16 17  1  0  0  0  0
 17 18  2  0  0  0  0
 18 20  1  0  0  0  0
 19 21  1  0  0  0  0
 20 22  2  0  0  0  0
 20 23  1  0  0  0  0
 21 25  2  0  0  0  0
 21 42  1  0  0  0  0
 22 26  1  0  0  0  0
 22 43  1  0  0  0  0
 23 27  2  0  0  0  0
 23 44  1  0  0  0  0
 24 25  1  0  0  0  0
 24 29  1  0  0  0  0
 25 45  1  0  0  0  0
 26 28  2  0  0  0  0
 26 46  1  0  0  0  0
 27 28  1  0  0  0  0
 27 47  1  0  0  0  0
 28 48  1  0  0  0  0
M  END
> <PUBCHEM_COMPOUND_CID>
70817911

> <PUBCHEM_COMPOUND_CANONICALIZED>
1

> <PUBCHEM_CACTVS_COMPLEXITY>
594

> <PUBCHEM_CACTVS_HBOND_ACCEPTOR>
4

> <PUBCHEM_CACTVS_HBOND_DONOR>
2

> <PUBCHEM_CACTVS_ROTATABLE_BOND>
4

> <PUBCHEM_CACTVS_SUBSKEYS>
AAADceB7oAAAAAAAAAAAAAAAAABgAWAAAAA8YIAAAAAAAFgB9AAAHgAYAAAADIiBnwAxsJ5IEACqAydydACShC8nEqAdmCGwdNiIaPLAnZGUoQhomALIyacYgcAOwAAAAAAAAACAAAAAAAAAAAAAAAAAAA==

> <PUBCHEM_IUPAC_OPENEYE_NAME>
2-[4-(1-aminocyclobutyl)phenyl]-3-phenyl-imidazo[1,2-b]pyridazine-6-carboxamide

> <PUBCHEM_IUPAC_CAS_NAME>
2-[4-(1-aminocyclobutyl)phenyl]-3-phenyl-6-imidazo[1,2-b]pyridazinecarboxamide

> <PUBCHEM_IUPAC_NAME_MARKUP>
2-[4-(1-aminocyclobutyl)phenyl]-3-phenylimidazo[1,2-b]pyridazine-6-carboxamide

> <PUBCHEM_IUPAC_NAME>
2-[4-(1-aminocyclobutyl)phenyl]-3-phenylimidazo[1,2-b]pyridazine-6-carboxamide

> <PUBCHEM_IUPAC_SYSTEMATIC_NAME>
2-[4-(1-azanylcyclobutyl)phenyl]-3-phenyl-imidazo[1,2-b]pyridazine-6-carboxamide

> <PUBCHEM_IUPAC_TRADITIONAL_NAME>
2-[4-(1-aminocyclobutyl)phenyl]-3-phenyl-imidazo[1,2-b]pyridazine-6-carboxamide

> <PUBCHEM_IUPAC_INCHI>
InChI=1S/C23H21N5O/c24-22(29)18-11-12-19-26-20(21(28(19)27-18)16-5-2-1-3-6-16)15-7-9-17(10-8-15)23(25)13-4-14-23/h1-3,5-12H,4,13-14,25H2,(H2,24,29)

> <PUBCHEM_IUPAC_INCHIKEY>
JBGYKRAZYDNCNV-UHFFFAOYSA-N

> <PUBCHEM_XLOGP3_AA>
2.4

> <PUBCHEM_EXACT_MASS>
383.17461031

> <PUBCHEM_MOLECULAR_FORMULA>
C23H21N5O

> <PUBCHEM_MOLECULAR_WEIGHT>
383.4

> <PUBCHEM_SMILES>
C1CC(C1)(C2=CC=C(C=C2)C3=C(N4C(=N3)C=CC(=N4)C(=O)N)C5=CC=CC=C5)N

> <PUBCHEM_CONNECTIVITY_SMILES>
C1CC(C1)(C2=CC=C(C=C2)C3=C(N4C(=N3)C=CC(=N4)C(=O)N)C5=CC=CC=C5)N

> <PUBCHEM_CACTVS_TPSA>
99.3

> <PUBCHEM_MONOISOTOPIC_WEIGHT>
383.17461031

> <PUBCHEM_TOTAL_CHARGE>
0

> <PUBCHEM_HEAVY_ATOM_COUNT>
29

> <PUBCHEM_ATOM_DEF_STEREO_COUNT>
0

> <PUBCHEM_ATOM_UDEF_STEREO_COUNT>
0

> <PUBCHEM_BOND_DEF_STEREO_COUNT>
0

> <PUBCHEM_BOND_UDEF_STEREO_COUNT>
0

> <PUBCHEM_ISOTOPIC_ATOM_COUNT>
0

> <PUBCHEM_COMPONENT_COUNT>
1

> <PUBCHEM_CACTVS_TAUTO_COUNT>
-1

> <PUBCHEM_COORDINATE_TYPE>
1
5
255

> <PUBCHEM_BONDANNOTATIONS>
11  12  8
11  13  8
12  14  8
13  15  8
14  16  8
15  16  8
17  18  8
19  21  8
20  22  8
20  23  8
21  25  8
22  26  8
23  27  8
24  25  8
26  28  8
27  28  8
3  18  8
3  19  8
3  5  8
4  17  8
4  19  8
5  24  8

$$$$
