10195250
  -OEChem-10172515062D

 56 60  0     1  0  0  0  0  0999 V2000
    4.6783    2.5368    0.0000 S   0  0  0  0  0  0  0  0  0  0  0  0
   15.2619   -3.4641    0.0000 O   0  0  0  0  0  0  0  0  0  0  0  0
    9.2619   -0.0000    0.0000 O   0  0  0  0  0  0  0  0  0  0  0  0
   14.2619   -1.7321    0.0000 N   0  0  0  0  0  0  0  0  0  0  0  0
    4.6783    0.9273    0.0000 N   0  0  0  0  0  0  0  0  0  0  0  0
    7.7619    0.8660    0.0000 N   0  0  0  0  0  0  0  0  0  0  0  0
    7.7619   -0.8660    0.0000 N   0  0  0  0  0  0  0  0  0  0  0  0
    7.2619    3.4641    0.0000 N   0  0  0  0  0  0  0  0  0  0  0  0
   13.7619   -2.5981    0.0000 C   0  0  0  0  0  0  0  0  0  0  0  0
   15.2619   -1.7321    0.0000 C   0  0  0  0  0  0  0  0  0  0  0  0
   13.7619   -0.8660    0.0000 C   0  0  0  0  0  0  0  0  0  0  0  0
   14.2619   -3.4641    0.0000 C   0  0  0  0  0  0  0  0  0  0  0  0
   15.7619   -2.5981    0.0000 C   0  0  0  0  0  0  0  0  0  0  0  0
   12.7619   -0.8660    0.0000 C   0  0  0  0  0  0  0  0  0  0  0  0
   12.2619   -1.7321    0.0000 C   0  0  0  0  0  0  0  0  0  0  0  0
   12.2619   -0.0000    0.0000 C   0  0  0  0  0  0  0  0  0  0  0  0
   10.7619   -0.8660    0.0000 C   0  0  0  0  0  0  0  0  0  0  0  0
   11.2619   -1.7321    0.0000 C   0  0  0  0  0  0  0  0  0  0  0  0
   11.2619   -0.0000    0.0000 C   0  0  0  0  0  0  0  0  0  0  0  0
    9.7619   -0.8660    0.0000 C   0  0  0  0  0  0  0  0  0  0  0  0
    6.2619    1.7321    0.0000 C   0  0  3  0  0  0  0  0  0  0  0  0
    5.2619    1.7321    0.0000 C   0  0  0  0  0  0  0  0  0  0  0  0
    6.7619    0.8660    0.0000 C   0  0  0  0  0  0  0  0  0  0  0  0
    3.7321    2.2321    0.0000 C   0  0  0  0  0  0  0  0  0  0  0  0
    3.7321    1.2321    0.0000 C   0  0  0  0  0  0  0  0  0  0  0  0
    8.2619    0.0000    0.0000 C   0  0  0  0  0  0  0  0  0  0  0  0
    6.2619    0.0000    0.0000 C   0  0  0  0  0  0  0  0  0  0  0  0
    2.8660    2.7321    0.0000 C   0  0  0  0  0  0  0  0  0  0  0  0
    2.8660    0.7321    0.0000 C   0  0  0  0  0  0  0  0  0  0  0  0
    2.0000    2.2321    0.0000 C   0  0  0  0  0  0  0  0  0  0  0  0
    2.0000    1.2321    0.0000 C   0  0  0  0  0  0  0  0  0  0  0  0
    6.7619   -0.8660    0.0000 C   0  0  0  0  0  0  0  0  0  0  0  0
    6.7619    2.5981    0.0000 C   0  0  0  0  0  0  0  0  0  0  0  0
   13.2869   -2.1996    0.0000 H   0  0  0  0  0  0  0  0  0  0  0  0
   13.2869   -2.9966    0.0000 H   0  0  0  0  0  0  0  0  0  0  0  0
   15.8445   -1.5200    0.0000 H   0  0  0  0  0  0  0  0  0  0  0  0
   15.1542   -1.1215    0.0000 H   0  0  0  0  0  0  0  0  0  0  0  0
   14.3445   -0.6540    0.0000 H   0  0  0  0  0  0  0  0  0  0  0  0
   13.6542   -0.2554    0.0000 H   0  0  0  0  0  0  0  0  0  0  0  0
   13.6793   -3.6762    0.0000 H   0  0  0  0  0  0  0  0  0  0  0  0
   14.3695   -4.0747    0.0000 H   0  0  0  0  0  0  0  0  0  0  0  0
   16.2368   -2.9966    0.0000 H   0  0  0  0  0  0  0  0  0  0  0  0
   16.2368   -2.1996    0.0000 H   0  0  0  0  0  0  0  0  0  0  0  0
   12.5719   -2.2690    0.0000 H   0  0  0  0  0  0  0  0  0  0  0  0
   12.5719    0.5369    0.0000 H   0  0  0  0  0  0  0  0  0  0  0  0
   10.9519   -2.2690    0.0000 H   0  0  0  0  0  0  0  0  0  0  0  0
   10.9519    0.5369    0.0000 H   0  0  0  0  0  0  0  0  0  0  0  0
    9.1793   -1.0781    0.0000 H   0  0  0  0  0  0  0  0  0  0  0  0
    9.8695   -1.4766    0.0000 H   0  0  0  0  0  0  0  0  0  0  0  0
    5.9519    2.2690    0.0000 H   0  0  0  0  0  0  0  0  0  0  0  0
    5.6419    0.0000    0.0000 H   0  0  0  0  0  0  0  0  0  0  0  0
    2.8660    3.3521    0.0000 H   0  0  0  0  0  0  0  0  0  0  0  0
    2.8660    0.1121    0.0000 H   0  0  0  0  0  0  0  0  0  0  0  0
    1.4631    2.5421    0.0000 H   0  0  0  0  0  0  0  0  0  0  0  0
    1.4631    0.9221    0.0000 H   0  0  0  0  0  0  0  0  0  0  0  0
    6.4519   -1.4030    0.0000 H   0  0  0  0  0  0  0  0  0  0  0  0
  1 22  1  0  0  0  0
  1 24  1  0  0  0  0
  2 12  1  0  0  0  0
  2 13  1  0  0  0  0
  3 20  1  0  0  0  0
  3 26  1  0  0  0  0
  4  9  1  0  0  0  0
  4 10  1  0  0  0  0
  4 11  1  0  0  0  0
  5 22  2  0  0  0  0
  5 25  1  0  0  0  0
  6 23  2  0  0  0  0
  6 26  1  0  0  0  0
  7 26  2  0  0  0  0
  7 32  1  0  0  0  0
  8 33  3  0  0  0  0
  9 12  1  0  0  0  0
  9 34  1  0  0  0  0
  9 35  1  0  0  0  0
 10 13  1  0  0  0  0
 10 36  1  0  0  0  0
 10 37  1  0  0  0  0
 11 14  1  0  0  0  0
 11 38  1  0  0  0  0
 11 39  1  0  0  0  0
 12 40  1  0  0  0  0
 12 41  1  0  0  0  0
 13 42  1  0  0  0  0
 13 43  1  0  0  0  0
 14 15  2  0  0  0  0
 14 16  1  0  0  0  0
 15 18  1  0  0  0  0
 15 44  1  0  0  0  0
 16 19  2  0  0  0  0
 16 45  1  0  0  0  0
 17 18  2  0  0  0  0
 17 19  1  0  0  0  0
 17 20  1  0  0  0  0
 18 46  1  0  0  0  0
 19 47  1  0  0  0  0
 20 48  1  0  0  0  0
 20 49  1  0  0  0  0
 21 22  1  0  0  0  0
 21 23  1  0  0  0  0
 21 33  1  0  0  0  0
 21 50  1  0  0  0  0
 23 27  1  0  0  0  0
 24 25  1  0  0  0  0
 24 28  2  0  0  0  0
 25 29  2  0  0  0  0
 27 32  2  0  0  0  0
 27 51  1  0  0  0  0
 28 30  1  0  0  0  0
 28 52  1  0  0  0  0
 29 31  1  0  0  0  0
 29 53  1  0  0  0  0
 30 31  2  0  0  0  0
 30 54  1  0  0  0  0
 31 55  1  0  0  0  0
 32 56  1  0  0  0  0
M  END
> <PUBCHEM_COMPOUND_CID>
10195250

> <PUBCHEM_COMPOUND_CANONICALIZED>
1

> <PUBCHEM_CACTVS_COMPLEXITY>
660

> <PUBCHEM_CACTVS_HBOND_ACCEPTOR>
8

> <PUBCHEM_CACTVS_HBOND_DONOR>
0

> <PUBCHEM_CACTVS_ROTATABLE_BOND>
7

> <PUBCHEM_CACTVS_SUBSKEYS>
AAADceB7sABAAAAAAAAAAAAAAAAAAWAAAAA8eIEAAAAAAFgB/AAAHgQAAAAADQjh3gY90bcIFAi0BzRnZACD8KlxCrhJ2Dw4bJiKrqLg+dmPNAhswAP46C+QwDAOQAAAAAAAAQCAAAAAAAACAAAAAAAAAA==

> <PUBCHEM_IUPAC_OPENEYE_NAME>
2-(1,3-benzothiazol-2-yl)-2-[2-[[4-(morpholinomethyl)phenyl]methoxy]pyrimidin-4-yl]acetonitrile

> <PUBCHEM_IUPAC_CAS_NAME>
2-(1,3-benzothiazol-2-yl)-2-[2-[[4-(4-morpholinylmethyl)phenyl]methoxy]-4-pyrimidinyl]acetonitrile

> <PUBCHEM_IUPAC_NAME_MARKUP>
2-(1,3-benzothiazol-2-yl)-2-[2-[[4-(morpholin-4-ylmethyl)phenyl]methoxy]pyrimidin-4-yl]acetonitrile

> <PUBCHEM_IUPAC_NAME>
2-(1,3-benzothiazol-2-yl)-2-[2-[[4-(morpholin-4-ylmethyl)phenyl]methoxy]pyrimidin-4-yl]acetonitrile

> <PUBCHEM_IUPAC_SYSTEMATIC_NAME>
2-(1,3-benzothiazol-2-yl)-2-[2-[[4-(morpholin-4-ylmethyl)phenyl]methoxy]pyrimidin-4-yl]ethanenitrile

> <PUBCHEM_IUPAC_TRADITIONAL_NAME>
2-(1,3-benzothiazol-2-yl)-2-[2-[4-(morpholinomethyl)benzyl]oxypyrimidin-4-yl]acetonitrile

> <PUBCHEM_IUPAC_INCHI>
InChI=1S/C25H23N5O2S/c26-15-20(24-28-22-3-1-2-4-23(22)33-24)21-9-10-27-25(29-21)32-17-19-7-5-18(6-8-19)16-30-11-13-31-14-12-30/h1-10,20H,11-14,16-17H2

> <PUBCHEM_IUPAC_INCHIKEY>
XCPPIJCBCWUBNT-UHFFFAOYSA-N

> <PUBCHEM_XLOGP3_AA>
3.3

> <PUBCHEM_EXACT_MASS>
457.15724617

> <PUBCHEM_MOLECULAR_FORMULA>
C25H23N5O2S

> <PUBCHEM_MOLECULAR_WEIGHT>
457.5

> <PUBCHEM_SMILES>
C1COCCN1CC2=CC=C(C=C2)COC3=NC=CC(=N3)C(C#N)C4=NC5=CC=CC=C5S4

> <PUBCHEM_CONNECTIVITY_SMILES>
C1COCCN1CC2=CC=C(C=C2)COC3=NC=CC(=N3)C(C#N)C4=NC5=CC=CC=C5S4

> <PUBCHEM_CACTVS_TPSA>
112

> <PUBCHEM_MONOISOTOPIC_WEIGHT>
457.15724617

> <PUBCHEM_TOTAL_CHARGE>
0

> <PUBCHEM_HEAVY_ATOM_COUNT>
33

> <PUBCHEM_ATOM_DEF_STEREO_COUNT>
0

> <PUBCHEM_ATOM_UDEF_STEREO_COUNT>
1

> <PUBCHEM_BOND_DEF_STEREO_COUNT>
0

> <PUBCHEM_BOND_UDEF_STEREO_COUNT>
0

> <PUBCHEM_ISOTOPIC_ATOM_COUNT>
0

> <PUBCHEM_COMPONENT_COUNT>
1

> <PUBCHEM_CACTVS_TAUTO_COUNT>
-1

> <PUBCHEM_COORDINATE_TYPE>
1
5
255

> <PUBCHEM_BONDANNOTATIONS>
1  22  8
1  24  8
14  15  8
14  16  8
15  18  8
16  19  8
17  18  8
17  19  8
21  33  3
23  27  8
24  25  8
24  28  8
25  29  8
27  32  8
28  30  8
29  31  8
30  31  8
5  22  8
5  25  8
6  23  8
6  26  8
7  26  8
7  32  8

$$$$
