238053
  -OEChem-10172515122D

 57 59  0     1  0  0  0  0  0999 V2000
    4.4084    1.0369    0.0000 S   0  0  0  0  0  0  0  0  0  0  0  0
    3.5753    8.0198    0.0000 O   0  0  0  0  0  0  0  0  0  0  0  0
    5.2744    1.5369    0.0000 O   0  0  0  0  0  0  0  0  0  0  0  0
    3.9084    1.9030    0.0000 O   0  0  0  0  0  0  0  0  0  0  0  0
    4.9084    0.1709    0.0000 O   0  0  0  0  0  0  0  0  0  0  0  0
    6.0873   10.6168    0.0000 N   0  0  0  0  0  0  0  0  0  0  0  0
    6.8239    9.6342    0.0000 C   0  0  3  0  0  0  0  0  0  0  0  0
    6.5651    8.6682    0.0000 C   0  0  3  0  0  0  0  0  0  0  0  0
    8.2229    9.1253    0.0000 C   0  0  0  0  0  0  0  0  0  0  0  0
    7.9640    8.1594    0.0000 C   0  0  0  0  0  0  0  0  0  0  0  0
    4.7907    9.3230    0.0000 C   0  0  0  0  0  0  0  0  0  0  0  0
    5.3441    7.8026    0.0000 C   0  0  0  0  0  0  0  0  0  0  0  0
    4.5150    8.3618    0.0000 C   0  0  0  0  0  0  0  0  0  0  0  0
    5.5873   11.4828    0.0000 C   0  0  0  0  0  0  0  0  0  0  0  0
    3.4017    7.0349    0.0000 C   0  0  0  0  0  0  0  0  0  0  0  0
    2.4620    6.6929    0.0000 C   0  0  0  0  0  0  0  0  0  0  0  0
    4.1677    6.3922    0.0000 C   0  0  0  0  0  0  0  0  0  0  0  0
    1.6960    7.3357    0.0000 C   0  0  0  0  0  0  0  0  0  0  0  0
    5.1074    6.7342    0.0000 C   0  0  0  0  0  0  0  0  0  0  0  0
    2.2884    5.7081    0.0000 C   0  0  0  0  0  0  0  0  0  0  0  0
    3.9941    5.4073    0.0000 C   0  0  0  0  0  0  0  0  0  0  0  0
    0.7563    6.9937    0.0000 C   0  0  0  0  0  0  0  0  0  0  0  0
    5.8735    6.0914    0.0000 C   0  0  0  0  0  0  0  0  0  0  0  0
    1.3487    5.3661    0.0000 C   0  0  0  0  0  0  0  0  0  0  0  0
    4.7601    4.7646    0.0000 C   0  0  0  0  0  0  0  0  0  0  0  0
    0.5826    6.0089    0.0000 C   0  0  0  0  0  0  0  0  0  0  0  0
    5.6998    5.1066    0.0000 C   0  0  0  0  0  0  0  0  0  0  0  0
    3.5424    0.5369    0.0000 C   0  0  0  0  0  0  0  0  0  0  0  0
    7.1933   10.1321    0.0000 H   0  0  0  0  0  0  0  0  0  0  0  0
    6.6479    8.0538    0.0000 H   0  0  0  0  0  0  0  0  0  0  0  0
    8.8168    8.9476    0.0000 H   0  0  0  0  0  0  0  0  0  0  0  0
    8.4178    9.7139    0.0000 H   0  0  0  0  0  0  0  0  0  0  0  0
    7.7691    7.5709    0.0000 H   0  0  0  0  0  0  0  0  0  0  0  0
    8.5580    7.9816    0.0000 H   0  0  0  0  0  0  0  0  0  0  0  0
    4.7856    9.9430    0.0000 H   0  0  0  0  0  0  0  0  0  0  0  0
    4.1764    9.4068    0.0000 H   0  0  0  0  0  0  0  0  0  0  0  0
    4.9382    7.3339    0.0000 H   0  0  0  0  0  0  0  0  0  0  0  0
    5.7607    7.3434    0.0000 H   0  0  0  0  0  0  0  0  0  0  0  0
    4.4395    7.7464    0.0000 H   0  0  0  0  0  0  0  0  0  0  0  0
    6.1242   11.7928    0.0000 H   0  0  0  0  0  0  0  0  0  0  0  0
    5.2773   12.0197    0.0000 H   0  0  0  0  0  0  0  0  0  0  0  0
    5.0504   11.1728    0.0000 H   0  0  0  0  0  0  0  0  0  0  0  0
    2.9267    7.4335    0.0000 H   0  0  0  0  0  0  0  0  0  0  0  0
    1.8036    7.9463    0.0000 H   0  0  0  0  0  0  0  0  0  0  0  0
    5.2151    7.3448    0.0000 H   0  0  0  0  0  0  0  0  0  0  0  0
    2.7633    5.3096    0.0000 H   0  0  0  0  0  0  0  0  0  0  0  0
    3.4115    5.1953    0.0000 H   0  0  0  0  0  0  0  0  0  0  0  0
    0.2813    7.3922    0.0000 H   0  0  0  0  0  0  0  0  0  0  0  0
    6.4561    6.3034    0.0000 H   0  0  0  0  0  0  0  0  0  0  0  0
    1.2410    4.7555    0.0000 H   0  0  0  0  0  0  0  0  0  0  0  0
    4.6525    4.1540    0.0000 H   0  0  0  0  0  0  0  0  0  0  0  0
    0.0000    5.7968    0.0000 H   0  0  0  0  0  0  0  0  0  0  0  0
    6.1748    4.7081    0.0000 H   0  0  0  0  0  0  0  0  0  0  0  0
    3.2324    1.0739    0.0000 H   0  0  0  0  0  0  0  0  0  0  0  0
    3.0055    0.2269    0.0000 H   0  0  0  0  0  0  0  0  0  0  0  0
    3.8524    0.0000    0.0000 H   0  0  0  0  0  0  0  0  0  0  0  0
    5.8114    1.2269    0.0000 H   0  0  0  0  0  0  0  0  0  0  0  0
  1  3  1  0  0  0  0
  1  4  2  0  0  0  0
  1  5  2  0  0  0  0
  1 28  1  0  0  0  0
  2 13  1  0  0  0  0
  2 15  1  0  0  0  0
  3 57  1  0  0  0  0
  6  7  1  0  0  0  0
  6  8  1  0  0  0  0
  6 14  1  0  0  0  0
  7  9  1  0  0  0  0
  7 11  1  0  0  0  0
  7 29  1  0  0  0  0
  8 10  1  0  0  0  0
  8 12  1  0  0  0  0
  8 30  1  0  0  0  0
  9 10  1  0  0  0  0
  9 31  1  0  0  0  0
  9 32  1  0  0  0  0
 10 33  1  0  0  0  0
 10 34  1  0  0  0  0
 11 13  1  0  0  0  0
 11 35  1  0  0  0  0
 11 36  1  0  0  0  0
 12 13  1  0  0  0  0
 12 37  1  0  0  0  0
 12 38  1  0  0  0  0
 13 39  1  0  0  0  0
 14 40  1  0  0  0  0
 14 41  1  0  0  0  0
 14 42  1  0  0  0  0
 15 16  1  0  0  0  0
 15 17  1  0  0  0  0
 15 43  1  0  0  0  0
 16 18  2  0  0  0  0
 16 20  1  0  0  0  0
 17 19  2  0  0  0  0
 17 21  1  0  0  0  0
 18 22  1  0  0  0  0
 18 44  1  0  0  0  0
 19 23  1  0  0  0  0
 19 45  1  0  0  0  0
 20 24  2  0  0  0  0
 20 46  1  0  0  0  0
 21 25  2  0  0  0  0
 21 47  1  0  0  0  0
 22 26  2  0  0  0  0
 22 48  1  0  0  0  0
 23 27  2  0  0  0  0
 23 49  1  0  0  0  0
 24 26  1  0  0  0  0
 24 50  1  0  0  0  0
 25 27  1  0  0  0  0
 25 51  1  0  0  0  0
 26 52  1  0  0  0  0
 27 53  1  0  0  0  0
 28 54  1  0  0  0  0
 28 55  1  0  0  0  0
 28 56  1  0  0  0  0
M  END
> <PUBCHEM_COMPOUND_CID>
238053

> <PUBCHEM_COMPOUND_CANONICALIZED>
1

> <PUBCHEM_CACTVS_COMPLEXITY>
433

> <PUBCHEM_CACTVS_HBOND_ACCEPTOR>
5

> <PUBCHEM_CACTVS_HBOND_DONOR>
1

> <PUBCHEM_CACTVS_ROTATABLE_BOND>
4

> <PUBCHEM_CACTVS_SUBSKEYS>
AAADceB6OABAAAAAAAAAAAAAAAAAAWAAAAA8YIAABgAAAAABQAAAHgQACAAADDzhmAayAIMABIKAAiBCAHACAAAgAAAIiAAICIgIJiKAsRiGMAAmwAGIqAeQwOAOAAAAAAAAAAAAAAAAAAAAAAAAAAAAAA==

> <PUBCHEM_IUPAC_OPENEYE_NAME>
3-benzhydryloxy-8-methyl-8-azabicyclo[3.2.1]octane;methanesulfonic acid

> <PUBCHEM_IUPAC_CAS_NAME>
3-(diphenylmethyl)oxy-8-methyl-8-azabicyclo[3.2.1]octane;methanesulfonic acid

> <PUBCHEM_IUPAC_NAME_MARKUP>
3-benzhydryloxy-8-methyl-8-azabicyclo[3.2.1]octane;methanesulfonic acid

> <PUBCHEM_IUPAC_NAME>
3-benzhydryloxy-8-methyl-8-azabicyclo[3.2.1]octane;methanesulfonic acid

> <PUBCHEM_IUPAC_SYSTEMATIC_NAME>
3-(diphenylmethyl)oxy-8-methyl-8-azabicyclo[3.2.1]octane;methanesulfonic acid

> <PUBCHEM_IUPAC_TRADITIONAL_NAME>
3-benzhydryloxy-8-methyl-8-azabicyclo[3.2.1]octane;mesylic acid

> <PUBCHEM_IUPAC_INCHI>
InChI=1S/C21H25NO.CH4O3S/c1-22-18-12-13-19(22)15-20(14-18)23-21(16-8-4-2-5-9-16)17-10-6-3-7-11-17;1-5(2,3)4/h2-11,18-21H,12-15H2,1H3;1H3,(H,2,3,4)

> <PUBCHEM_IUPAC_INCHIKEY>
CPFJLLXFNPCTDW-UHFFFAOYSA-N

> <PUBCHEM_EXACT_MASS>
403.18172958

> <PUBCHEM_MOLECULAR_FORMULA>
C22H29NO4S

> <PUBCHEM_MOLECULAR_WEIGHT>
403.5

> <PUBCHEM_SMILES>
CN1C2CCC1CC(C2)OC(C3=CC=CC=C3)C4=CC=CC=C4.CS(=O)(=O)O

> <PUBCHEM_CONNECTIVITY_SMILES>
CN1C2CCC1CC(C2)OC(C3=CC=CC=C3)C4=CC=CC=C4.CS(=O)(=O)O

> <PUBCHEM_CACTVS_TPSA>
75.2

> <PUBCHEM_MONOISOTOPIC_WEIGHT>
403.18172958

> <PUBCHEM_TOTAL_CHARGE>
0

> <PUBCHEM_HEAVY_ATOM_COUNT>
28

> <PUBCHEM_ATOM_DEF_STEREO_COUNT>
0

> <PUBCHEM_ATOM_UDEF_STEREO_COUNT>
2

> <PUBCHEM_BOND_DEF_STEREO_COUNT>
0

> <PUBCHEM_BOND_UDEF_STEREO_COUNT>
0

> <PUBCHEM_ISOTOPIC_ATOM_COUNT>
0

> <PUBCHEM_COMPONENT_COUNT>
2

> <PUBCHEM_CACTVS_TAUTO_COUNT>
-1

> <PUBCHEM_COORDINATE_TYPE>
1
5
255

> <PUBCHEM_BONDANNOTATIONS>
16  18  8
16  20  8
17  19  8
17  21  8
18  22  8
19  23  8
20  24  8
21  25  8
22  26  8
23  27  8
24  26  8
25  27  8
7  9  3
8  10  3

$$$$
