155074
  -OEChem-10172515132D

 47 49  0     0  0  0  0  0  0999 V2000
    0.0000    4.7421    0.0000 Cl  0  5  0  0  0  0  0  0  0  0  0  0
   11.9477    1.5521    0.0000 O   0  0  0  0  0  0  0  0  0  0  0  0
   10.4958    0.7138    0.0000 O   0  0  0  0  0  0  0  0  0  0  0  0
    5.8103    6.3730    0.0000 O   0  0  0  0  0  0  0  0  0  0  0  0
    3.9908    5.3412    0.0000 O   0  0  0  0  0  0  0  0  0  0  0  0
    7.3500    9.4841    0.0000 O   0  0  0  0  0  0  0  0  0  0  0  0
    8.5299    4.7954    0.0000 N   0  3  0  0  0  0  0  0  0  0  0  0
    9.3959    5.2954    0.0000 C   0  0  0  0  0  0  0  0  0  0  0  0
   10.2619    4.7954    0.0000 C   0  0  0  0  0  0  0  0  0  0  0  0
    8.5299    3.7954    0.0000 C   0  0  0  0  0  0  0  0  0  0  0  0
   10.2619    3.7954    0.0000 C   0  0  0  0  0  0  0  0  0  0  0  0
    9.3959    3.2954    0.0000 C   0  0  0  0  0  0  0  0  0  0  0  0
    7.6359    5.3300    0.0000 C   0  0  0  0  0  0  0  0  0  0  0  0
    7.6359    3.2607    0.0000 C   0  0  0  0  0  0  0  0  0  0  0  0
    6.7299    4.8162    0.0000 C   0  0  0  0  0  0  0  0  0  0  0  0
    6.7299    3.7746    0.0000 C   0  0  0  0  0  0  0  0  0  0  0  0
   11.1719    3.2885    0.0000 C   0  0  0  0  0  0  0  0  0  0  0  0
    9.3798    2.2539    0.0000 C   0  0  0  0  0  0  0  0  0  0  0  0
   11.1800    2.2469    0.0000 C   0  0  0  0  0  0  0  0  0  0  0  0
   10.2779    1.7261    0.0000 C   0  0  0  0  0  0  0  0  0  0  0  0
    5.7987    5.3731    0.0000 C   0  0  0  0  0  0  0  0  0  0  0  0
    5.7987    3.2176    0.0000 C   0  0  0  0  0  0  0  0  0  0  0  0
    4.8549    4.8379    0.0000 C   0  0  0  0  0  0  0  0  0  0  0  0
   11.5257    0.6065    0.0000 C   0  0  0  0  0  0  0  0  0  0  0  0
    4.8549    3.7529    0.0000 C   0  0  0  0  0  0  0  0  0  0  0  0
    4.9501    6.8830    0.0000 C   0  0  0  0  0  0  0  0  0  0  0  0
    3.1229    4.8445    0.0000 C   0  0  0  0  0  0  0  0  0  0  0  0
    9.7944    5.7703    0.0000 H   0  0  0  0  0  0  0  0  0  0  0  0
    8.9974    5.7703    0.0000 H   0  0  0  0  0  0  0  0  0  0  0  0
   10.8725    4.6877    0.0000 H   0  0  0  0  0  0  0  0  0  0  0  0
   10.4740    5.3780    0.0000 H   0  0  0  0  0  0  0  0  0  0  0  0
    7.6431    5.9500    0.0000 H   0  0  0  0  0  0  0  0  0  0  0  0
    7.6431    2.6408    0.0000 H   0  0  0  0  0  0  0  0  0  0  0  0
   11.7052    3.6047    0.0000 H   0  0  0  0  0  0  0  0  0  0  0  0
    8.8394    1.9501    0.0000 H   0  0  0  0  0  0  0  0  0  0  0  0
    5.8059    2.5977    0.0000 H   0  0  0  0  0  0  0  0  0  0  0  0
   11.3969    0.0000    0.0000 H   0  0  0  0  0  0  0  0  0  0  0  0
   12.1153    0.4147    0.0000 H   0  0  0  0  0  0  0  0  0  0  0  0
    4.3192    3.4408    0.0000 H   0  0  0  0  0  0  0  0  0  0  0  0
    5.2663    7.4163    0.0000 H   0  0  0  0  0  0  0  0  0  0  0  0
    4.4168    7.1992    0.0000 H   0  0  0  0  0  0  0  0  0  0  0  0
    4.6339    6.3497    0.0000 H   0  0  0  0  0  0  0  0  0  0  0  0
    2.8150    5.3827    0.0000 H   0  0  0  0  0  0  0  0  0  0  0  0
    2.5848    4.5366    0.0000 H   0  0  0  0  0  0  0  0  0  0  0  0
    3.4308    4.3064    0.0000 H   0  0  0  0  0  0  0  0  0  0  0  0
    7.8870    9.7941    0.0000 H   0  0  0  0  0  0  0  0  0  0  0  0
    6.8131    9.7941    0.0000 H   0  0  0  0  0  0  0  0  0  0  0  0
  2 19  1  0  0  0  0
  2 24  1  0  0  0  0
  3 20  1  0  0  0  0
  3 24  1  0  0  0  0
  4 21  1  0  0  0  0
  4 26  1  0  0  0  0
  5 23  1  0  0  0  0
  5 27  1  0  0  0  0
  6 46  1  0  0  0  0
  6 47  1  0  0  0  0
  7  8  1  0  0  0  0
  7 10  2  0  0  0  0
  7 13  1  0  0  0  0
  8  9  1  0  0  0  0
  8 28  1  0  0  0  0
  8 29  1  0  0  0  0
  9 11  1  0  0  0  0
  9 30  1  0  0  0  0
  9 31  1  0  0  0  0
 10 12  1  0  0  0  0
 10 14  1  0  0  0  0
 11 12  1  0  0  0  0
 11 17  2  0  0  0  0
 12 18  2  0  0  0  0
 13 15  2  0  0  0  0
 13 32  1  0  0  0  0
 14 16  2  0  0  0  0
 14 33  1  0  0  0  0
 15 16  1  0  0  0  0
 15 21  1  0  0  0  0
 16 22  1  0  0  0  0
 17 19  1  0  0  0  0
 17 34  1  0  0  0  0
 18 20  1  0  0  0  0
 18 35  1  0  0  0  0
 19 20  2  0  0  0  0
 21 23  2  0  0  0  0
 22 25  2  0  0  0  0
 22 36  1  0  0  0  0
 23 25  1  0  0  0  0
 24 37  1  0  0  0  0
 24 38  1  0  0  0  0
 25 39  1  0  0  0  0
 26 40  1  0  0  0  0
 26 41  1  0  0  0  0
 26 42  1  0  0  0  0
 27 43  1  0  0  0  0
 27 44  1  0  0  0  0
 27 45  1  0  0  0  0
M  CHG  2   1  -1   7   1
M  END
> <PUBCHEM_COMPOUND_CID>
155074

> <PUBCHEM_COMPOUND_CANONICALIZED>
1

> <PUBCHEM_CACTVS_COMPLEXITY>
488

> <PUBCHEM_CACTVS_HBOND_ACCEPTOR>
6

> <PUBCHEM_CACTVS_HBOND_DONOR>
1

> <PUBCHEM_CACTVS_ROTATABLE_BOND>
2

> <PUBCHEM_CACTVS_SUBSKEYS>
AAADceB6OAAEAAAAAAAAAAAAAAAAASAAAAA8eIEAAAAAAEix9AAAHgAACAAADAzBngc+jtMMFACgAzRnRACCiCAxIiAI2CA+7JgdJuLEsZukMCpmwBnO6Aew0PMOoAABAAAYQABAAAIAADCAAAAAAAAAAA==

> <PUBCHEM_IUPAC_OPENEYE_NAME>
16,17-dimethoxy-5,7-dioxa-13-azoniapentacyclo[11.8.0.02,10.04,8.015,20]henicosa-1(13),2,4(8),9,14,16,18,20-octaene;chloride;hydrate

> <PUBCHEM_IUPAC_CAS_NAME>
16,17-dimethoxy-5,7-dioxa-13-azoniapentacyclo[11.8.0.02,10.04,8.015,20]heneicosa-1(13),2,4(8),9,14,16,18,20-octaene;chloride;hydrate

> <PUBCHEM_IUPAC_NAME_MARKUP>
16,17-dimethoxy-5,7-dioxa-13-azoniapentacyclo[11.8.0.0<SUP>2,10</SUP>.0<SUP>4,8</SUP>.0<SUP>15,20</SUP>]henicosa-1(13),2,4(8),9,14,16,18,20-octaene;chloride;hydrate

> <PUBCHEM_IUPAC_NAME>
16,17-dimethoxy-5,7-dioxa-13-azoniapentacyclo[11.8.0.02,10.04,8.015,20]henicosa-1(13),2,4(8),9,14,16,18,20-octaene;chloride;hydrate

> <PUBCHEM_IUPAC_SYSTEMATIC_NAME>
16,17-dimethoxy-5,7-dioxa-13-azoniapentacyclo[11.8.0.02,10.04,8.015,20]henicosa-1(13),2,4(8),9,14,16,18,20-octaene;chloride;hydrate

> <PUBCHEM_IUPAC_TRADITIONAL_NAME>
16,17-dimethoxy-5,7-dioxa-13-azoniapentacyclo[11.8.0.02,10.04,8.015,20]heneicosa-1(13),2,4(8),9,14,16,18,20-octaene;chloride;hydrate

> <PUBCHEM_IUPAC_INCHI>
InChI=1S/C20H18NO4.ClH.H2O/c1-22-17-4-3-12-7-16-14-9-19-18(24-11-25-19)8-13(14)5-6-21(16)10-15(12)20(17)23-2;;/h3-4,7-10H,5-6,11H2,1-2H3;1H;1H2/q+1;;/p-1

> <PUBCHEM_IUPAC_INCHIKEY>
BPNJXFPOPCFZOC-UHFFFAOYSA-M

> <PUBCHEM_EXACT_MASS>
389.1030004

> <PUBCHEM_MOLECULAR_FORMULA>
C20H20ClNO5

> <PUBCHEM_MOLECULAR_WEIGHT>
389.8

> <PUBCHEM_SMILES>
COC1=C(C2=C[N+]3=C(C=C2C=C1)C4=CC5=C(C=C4CC3)OCO5)OC.O.[Cl-]

> <PUBCHEM_CONNECTIVITY_SMILES>
COC1=C(C2=C[N+]3=C(C=C2C=C1)C4=CC5=C(C=C4CC3)OCO5)OC.O.[Cl-]

> <PUBCHEM_CACTVS_TPSA>
41.8

> <PUBCHEM_MONOISOTOPIC_WEIGHT>
389.1030004

> <PUBCHEM_TOTAL_CHARGE>
0

> <PUBCHEM_HEAVY_ATOM_COUNT>
27

> <PUBCHEM_ATOM_DEF_STEREO_COUNT>
0

> <PUBCHEM_ATOM_UDEF_STEREO_COUNT>
0

> <PUBCHEM_BOND_DEF_STEREO_COUNT>
0

> <PUBCHEM_BOND_UDEF_STEREO_COUNT>
0

> <PUBCHEM_ISOTOPIC_ATOM_COUNT>
0

> <PUBCHEM_COMPONENT_COUNT>
3

> <PUBCHEM_CACTVS_TAUTO_COUNT>
-1

> <PUBCHEM_COORDINATE_TYPE>
1
5
255

> <PUBCHEM_BONDANNOTATIONS>
10  14  8
11  12  8
11  17  8
12  18  8
13  15  8
14  16  8
15  16  8
15  21  8
16  22  8
17  19  8
18  20  8
19  20  8
21  23  8
22  25  8
23  25  8
7  10  8
7  13  8

$$$$
