25102846
  -OEChem-10172515132D

 76 79  0     1  0  0  0  0  0999 V2000
   16.6047   13.7141    0.0000 F   0  0  0  0  0  0  0  0  0  0  0  0
   14.0704    8.1844    0.0000 O   0  0  0  0  0  0  0  0  0  0  0  0
   14.9190    9.6943    0.0000 O   0  0  0  0  0  0  0  0  0  0  0  0
   11.5130    4.6546    0.0000 O   0  0  0  0  0  0  0  0  0  0  0  0
    8.0325    3.6200    0.0000 O   0  0  0  0  0  0  0  0  0  0  0  0
    8.0325    1.6200    0.0000 O   0  0  0  0  0  0  0  0  0  0  0  0
    3.1350    5.7620    0.0000 O   0  0  0  0  0  0  0  0  0  0  0  0
    4.8671    6.7620    0.0000 O   0  0  0  0  0  0  0  0  0  0  0  0
    0.5369    7.2620    0.0000 O   0  0  0  0  0  0  0  0  0  0  0  0
    4.0010    8.2620    0.0000 O   0  0  0  0  0  0  0  0  0  0  0  0
    1.4030    5.7620    0.0000 O   0  0  0  0  0  0  0  0  0  0  0  0
   14.9537    6.6945    0.0000 N   0  0  0  0  0  0  0  0  0  0  0  0
   16.6509    9.7143    0.0000 N   0  0  0  0  0  0  0  0  0  0  0  0
   11.5245    1.5853    0.0000 N   0  0  0  0  0  0  0  0  0  0  0  0
   15.8023    8.2044    0.0000 C   0  0  0  0  0  0  0  0  0  0  0  0
   16.3123    7.3442    0.0000 C   0  0  0  0  0  0  0  0  0  0  0  0
   16.8022    8.2160    0.0000 C   0  0  0  0  0  0  0  0  0  0  0  0
   14.9421    7.6945    0.0000 C   0  0  0  0  0  0  0  0  0  0  0  0
   15.7908    9.2044    0.0000 C   0  0  0  0  0  0  0  0  0  0  0  0
   14.0935    6.1845    0.0000 C   0  0  0  0  0  0  0  0  0  0  0  0
   16.6394   10.7143    0.0000 C   0  0  0  0  0  0  0  0  0  0  0  0
   14.1051    5.1846    0.0000 C   0  0  0  0  0  0  0  0  0  0  0  0
   13.2218    6.6745    0.0000 C   0  0  0  0  0  0  0  0  0  0  0  0
   15.7676   11.2042    0.0000 C   0  0  0  0  0  0  0  0  0  0  0  0
   17.4996   11.2243    0.0000 C   0  0  0  0  0  0  0  0  0  0  0  0
   13.2449    4.6746    0.0000 C   0  0  0  0  0  0  0  0  0  0  0  0
   12.3616    6.1645    0.0000 C   0  0  0  0  0  0  0  0  0  0  0  0
   15.7561   12.2042    0.0000 C   0  0  0  0  0  0  0  0  0  0  0  0
   17.4880   12.2242    0.0000 C   0  0  0  0  0  0  0  0  0  0  0  0
   12.3731    5.1646    0.0000 C   0  0  0  0  0  0  0  0  0  0  0  0
   16.6162   12.7141    0.0000 C   0  0  0  0  0  0  0  0  0  0  0  0
   11.5245    3.6547    0.0000 C   0  0  0  0  0  0  0  0  0  0  0  0
   10.6306    3.1200    0.0000 C   0  0  0  0  0  0  0  0  0  0  0  0
   12.4306    3.1408    0.0000 C   0  0  0  0  0  0  0  0  0  0  0  0
   10.6306    2.1200    0.0000 C   0  0  0  0  0  0  0  0  0  0  0  0
    9.7646    3.6200    0.0000 C   0  0  0  0  0  0  0  0  0  0  0  0
    9.7646    1.6200    0.0000 C   0  0  0  0  0  0  0  0  0  0  0  0
   12.4306    2.0992    0.0000 C   0  0  0  0  0  0  0  0  0  0  0  0
    8.8985    3.1200    0.0000 C   0  0  0  0  0  0  0  0  0  0  0  0
    8.8985    2.1200    0.0000 C   0  0  0  0  0  0  0  0  0  0  0  0
    8.0325    4.6200    0.0000 C   0  0  0  0  0  0  0  0  0  0  0  0
    8.0325    0.6200    0.0000 C   0  0  0  0  0  0  0  0  0  0  0  0
    3.1350    6.7620    0.0000 C   0  0  1  0  0  0  0  0  0  0  0  0
    2.2690    7.2620    0.0000 C   0  0  0  0  0  0  0  0  0  0  0  0
    4.0010    7.2620    0.0000 C   0  0  0  0  0  0  0  0  0  0  0  0
    1.4030    6.7620    0.0000 C   0  0  0  0  0  0  0  0  0  0  0  0
   15.8420    6.9403    0.0000 H   0  0  0  0  0  0  0  0  0  0  0  0
   16.7918    6.9512    0.0000 H   0  0  0  0  0  0  0  0  0  0  0  0
   17.3873    8.0107    0.0000 H   0  0  0  0  0  0  0  0  0  0  0  0
   16.9028    8.8278    0.0000 H   0  0  0  0  0  0  0  0  0  0  0  0
   15.4942    6.3908    0.0000 H   0  0  0  0  0  0  0  0  0  0  0  0
   17.1914    9.4106    0.0000 H   0  0  0  0  0  0  0  0  0  0  0  0
   14.6456    4.8808    0.0000 H   0  0  0  0  0  0  0  0  0  0  0  0
   13.2146    7.2945    0.0000 H   0  0  0  0  0  0  0  0  0  0  0  0
   15.2343   10.8880    0.0000 H   0  0  0  0  0  0  0  0  0  0  0  0
   18.0400   10.9205    0.0000 H   0  0  0  0  0  0  0  0  0  0  0  0
   13.2521    4.0547    0.0000 H   0  0  0  0  0  0  0  0  0  0  0  0
   11.8211    6.4683    0.0000 H   0  0  0  0  0  0  0  0  0  0  0  0
   15.2156   12.5079    0.0000 H   0  0  0  0  0  0  0  0  0  0  0  0
   18.0213   12.5404    0.0000 H   0  0  0  0  0  0  0  0  0  0  0  0
   12.9663    3.4529    0.0000 H   0  0  0  0  0  0  0  0  0  0  0  0
    9.7646    4.2400    0.0000 H   0  0  0  0  0  0  0  0  0  0  0  0
    9.7646    1.0000    0.0000 H   0  0  0  0  0  0  0  0  0  0  0  0
   12.9663    1.7871    0.0000 H   0  0  0  0  0  0  0  0  0  0  0  0
    8.6525    4.6200    0.0000 H   0  0  0  0  0  0  0  0  0  0  0  0
    8.0325    5.2400    0.0000 H   0  0  0  0  0  0  0  0  0  0  0  0
    7.4125    4.6200    0.0000 H   0  0  0  0  0  0  0  0  0  0  0  0
    7.4125    0.6200    0.0000 H   0  0  0  0  0  0  0  0  0  0  0  0
    8.0325    0.0000    0.0000 H   0  0  0  0  0  0  0  0  0  0  0  0
    8.6525    0.6200    0.0000 H   0  0  0  0  0  0  0  0  0  0  0  0
    2.5981    6.4520    0.0000 H   0  0  0  0  0  0  0  0  0  0  0  0
    2.6675    7.7370    0.0000 H   0  0  0  0  0  0  0  0  0  0  0  0
    1.8705    7.7370    0.0000 H   0  0  0  0  0  0  0  0  0  0  0  0
    2.5981    5.4520    0.0000 H   0  0  0  0  0  0  0  0  0  0  0  0
    5.4040    7.0720    0.0000 H   0  0  0  0  0  0  0  0  0  0  0  0
    0.0000    6.9520    0.0000 H   0  0  0  0  0  0  0  0  0  0  0  0
  1 31  1  0  0  0  0
  2 18  2  0  0  0  0
  3 19  2  0  0  0  0
  4 30  1  0  0  0  0
  4 32  1  0  0  0  0
  5 39  1  0  0  0  0
  5 41  1  0  0  0  0
  6 40  1  0  0  0  0
  6 42  1  0  0  0  0
 43  7  1  1  0  0  0
  7 74  1  0  0  0  0
  8 45  1  0  0  0  0
  8 75  1  0  0  0  0
  9 46  1  0  0  0  0
  9 76  1  0  0  0  0
 10 45  2  0  0  0  0
 11 46  2  0  0  0  0
 12 18  1  0  0  0  0
 12 20  1  0  0  0  0
 12 51  1  0  0  0  0
 13 19  1  0  0  0  0
 13 21  1  0  0  0  0
 13 52  1  0  0  0  0
 14 35  2  0  0  0  0
 14 38  1  0  0  0  0
 15 16  1  0  0  0  0
 15 17  1  0  0  0  0
 15 18  1  0  0  0  0
 15 19  1  0  0  0  0
 16 17  1  0  0  0  0
 16 47  1  0  0  0  0
 16 48  1  0  0  0  0
 17 49  1  0  0  0  0
 17 50  1  0  0  0  0
 20 22  2  0  0  0  0
 20 23  1  0  0  0  0
 21 24  2  0  0  0  0
 21 25  1  0  0  0  0
 22 26  1  0  0  0  0
 22 53  1  0  0  0  0
 23 27  2  0  0  0  0
 23 54  1  0  0  0  0
 24 28  1  0  0  0  0
 24 55  1  0  0  0  0
 25 29  2  0  0  0  0
 25 56  1  0  0  0  0
 26 30  2  0  0  0  0
 26 57  1  0  0  0  0
 27 30  1  0  0  0  0
 27 58  1  0  0  0  0
 28 31  2  0  0  0  0
 28 59  1  0  0  0  0
 29 31  1  0  0  0  0
 29 60  1  0  0  0  0
 32 33  2  0  0  0  0
 32 34  1  0  0  0  0
 33 35  1  0  0  0  0
 33 36  1  0  0  0  0
 34 38  2  0  0  0  0
 34 61  1  0  0  0  0
 35 37  1  0  0  0  0
 36 39  2  0  0  0  0
 36 62  1  0  0  0  0
 37 40  2  0  0  0  0
 37 63  1  0  0  0  0
 38 64  1  0  0  0  0
 39 40  1  0  0  0  0
 41 65  1  0  0  0  0
 41 66  1  0  0  0  0
 41 67  1  0  0  0  0
 42 68  1  0  0  0  0
 42 69  1  0  0  0  0
 42 70  1  0  0  0  0
 43 44  1  0  0  0  0
 43 45  1  0  0  0  0
 43 71  1  0  0  0  0
 44 46  1  0  0  0  0
 44 72  1  0  0  0  0
 44 73  1  0  0  0  0
M  END
> <PUBCHEM_COMPOUND_CID>
25102846

> <PUBCHEM_COMPOUND_CANONICALIZED>
1

> <PUBCHEM_CACTVS_COMPLEXITY>
924

> <PUBCHEM_CACTVS_HBOND_ACCEPTOR>
12

> <PUBCHEM_CACTVS_HBOND_DONOR>
5

> <PUBCHEM_CACTVS_ROTATABLE_BOND>
11

> <PUBCHEM_CACTVS_SUBSKEYS>
AAADceB/PQAAAAAAAAAAAAAAGAAAAAAAAAA8YMEAAAAAAACx9AAAHwAQCAAADhzhng4+zvLIFgCoAzX3XAKCiCAxIiAI2CF+7JgNNv7M8ZuGeCrn9BnL6Afz8L8OIEABAgACQABAgAIEAASAAAAAAAAAAA==

> <PUBCHEM_IUPAC_OPENEYE_NAME>
N1-[4-[(6,7-dimethoxy-4-quinolyl)oxy]phenyl]-N1'-(4-fluorophenyl)cyclopropane-1,1-dicarboxamide;(2S)-2-hydroxybutanedioic acid

> <PUBCHEM_IUPAC_CAS_NAME>
N1-[4-[(6,7-dimethoxy-4-quinolinyl)oxy]phenyl]-N1'-(4-fluorophenyl)cyclopropane-1,1-dicarboxamide;(2S)-2-hydroxybutanedioic acid

> <PUBCHEM_IUPAC_NAME_MARKUP>
1-<I>N</I>-[4-(6,7-dimethoxyquinolin-4-yl)oxyphenyl]-1-<I>N</I>&apos;-(4-fluorophenyl)cyclopropane-1,1-dicarboxamide;(2<I>S</I>)-2-hydroxybutanedioic acid

> <PUBCHEM_IUPAC_NAME>
1-N-[4-(6,7-dimethoxyquinolin-4-yl)oxyphenyl]-1-N'-(4-fluorophenyl)cyclopropane-1,1-dicarboxamide;(2S)-2-hydroxybutanedioic acid

> <PUBCHEM_IUPAC_SYSTEMATIC_NAME>
N1-[4-(6,7-dimethoxyquinolin-4-yl)oxyphenyl]-N1'-(4-fluorophenyl)cyclopropane-1,1-dicarboxamide;(2S)-2-oxidanylbutanedioic acid

> <PUBCHEM_IUPAC_TRADITIONAL_NAME>
N-[4-[(6,7-dimethoxy-4-quinolyl)oxy]phenyl]-N'-(4-fluorophenyl)cyclopropane-1,1-dicarboxamide;(2S)-2-hydroxysuccinic acid

> <PUBCHEM_IUPAC_INCHI>
InChI=1S/C28H24FN3O5.C4H6O5/c1-35-24-15-21-22(16-25(24)36-2)30-14-11-23(21)37-20-9-7-19(8-10-20)32-27(34)28(12-13-28)26(33)31-18-5-3-17(29)4-6-18;5-2(4(8)9)1-3(6)7/h3-11,14-16H,12-13H2,1-2H3,(H,31,33)(H,32,34);2,5H,1H2,(H,6,7)(H,8,9)/t;2-/m.0/s1

> <PUBCHEM_IUPAC_INCHIKEY>
HFCFMRYTXDINDK-WNQIDUERSA-N

> <PUBCHEM_EXACT_MASS>
635.19152232

> <PUBCHEM_MOLECULAR_FORMULA>
C32H30FN3O10

> <PUBCHEM_MOLECULAR_WEIGHT>
635.6

> <PUBCHEM_SMILES>
COC1=CC2=C(C=CN=C2C=C1OC)OC3=CC=C(C=C3)NC(=O)C4(CC4)C(=O)NC5=CC=C(C=C5)F.C([C@@H](C(=O)O)O)C(=O)O

> <PUBCHEM_CONNECTIVITY_SMILES>
COC1=CC2=C(C=CN=C2C=C1OC)OC3=CC=C(C=C3)NC(=O)C4(CC4)C(=O)NC5=CC=C(C=C5)F.C(C(C(=O)O)O)C(=O)O

> <PUBCHEM_CACTVS_TPSA>
194

> <PUBCHEM_MONOISOTOPIC_WEIGHT>
635.19152232

> <PUBCHEM_TOTAL_CHARGE>
0

> <PUBCHEM_HEAVY_ATOM_COUNT>
46

> <PUBCHEM_ATOM_DEF_STEREO_COUNT>
1

> <PUBCHEM_ATOM_UDEF_STEREO_COUNT>
0

> <PUBCHEM_BOND_DEF_STEREO_COUNT>
0

> <PUBCHEM_BOND_UDEF_STEREO_COUNT>
0

> <PUBCHEM_ISOTOPIC_ATOM_COUNT>
0

> <PUBCHEM_COMPONENT_COUNT>
2

> <PUBCHEM_CACTVS_TAUTO_COUNT>
-1

> <PUBCHEM_COORDINATE_TYPE>
1
5
255

> <PUBCHEM_BONDANNOTATIONS>
14  35  8
14  38  8
20  22  8
20  23  8
21  24  8
21  25  8
22  26  8
23  27  8
24  28  8
25  29  8
26  30  8
27  30  8
28  31  8
29  31  8
32  33  8
32  34  8
33  35  8
33  36  8
34  38  8
35  37  8
36  39  8
37  40  8
39  40  8
43  7  5

$$$$
