2754
  -OEChem-10172515062D

 54 57  0     0  0  0  0  0  0999 V2000
    7.9160    1.8927    0.0000 O   0  0  0  0  0  0  0  0  0  0  0  0
   13.1782   -0.1315    0.0000 O   0  0  0  0  0  0  0  0  0  0  0  0
    3.4756    0.4153    0.0000 N   0  0  0  0  0  0  0  0  0  0  0  0
    2.4967    0.2111    0.0000 N   0  0  0  0  0  0  0  0  0  0  0  0
    2.6720    1.8196    0.0000 N   0  0  0  0  0  0  0  0  0  0  0  0
    2.0000    1.0791    0.0000 N   0  0  0  0  0  0  0  0  0  0  0  0
   11.4461   -0.1315    0.0000 N   0  0  0  0  0  0  0  0  0  0  0  0
    4.2162   -0.2567    0.0000 C   0  0  0  0  0  0  0  0  0  0  0  0
    4.0045   -1.2341    0.0000 C   0  0  0  0  0  0  0  0  0  0  0  0
    5.1684    0.0486    0.0000 C   0  0  0  0  0  0  0  0  0  0  0  0
    4.7450   -1.9060    0.0000 C   0  0  0  0  0  0  0  0  0  0  0  0
    5.9090   -0.6234    0.0000 C   0  0  0  0  0  0  0  0  0  0  0  0
    5.6973   -1.6007    0.0000 C   0  0  0  0  0  0  0  0  0  0  0  0
    3.5840    1.4094    0.0000 C   0  0  0  0  0  0  0  0  0  0  0  0
    4.4519    1.9060    0.0000 C   0  0  0  0  0  0  0  0  0  0  0  0
    5.3160    1.4027    0.0000 C   0  0  0  0  0  0  0  0  0  0  0  0
    6.1840    1.8994    0.0000 C   0  0  0  0  0  0  0  0  0  0  0  0
    7.0480    1.3960    0.0000 C   0  0  0  0  0  0  0  0  0  0  0  0
   10.5801    1.3685    0.0000 C   0  0  0  0  0  0  0  0  0  0  0  0
   11.4461    1.8685    0.0000 C   0  0  0  0  0  0  0  0  0  0  0  0
   10.5801    0.3685    0.0000 C   0  0  0  0  0  0  0  0  0  0  0  0
   12.3121    1.3685    0.0000 C   0  0  0  0  0  0  0  0  0  0  0  0
    8.7801    1.3894    0.0000 C   0  0  0  0  0  0  0  0  0  0  0  0
    9.6861    1.9032    0.0000 C   0  0  0  0  0  0  0  0  0  0  0  0
   12.3121    0.3685    0.0000 C   0  0  0  0  0  0  0  0  0  0  0  0
    9.6861   -0.1661    0.0000 C   0  0  0  0  0  0  0  0  0  0  0  0
    8.7801    0.3477    0.0000 C   0  0  0  0  0  0  0  0  0  0  0  0
    3.6258   -0.4460    0.0000 H   0  0  0  0  0  0  0  0  0  0  0  0
    3.4305   -0.9996    0.0000 H   0  0  0  0  0  0  0  0  0  0  0  0
    3.6739   -1.7586    0.0000 H   0  0  0  0  0  0  0  0  0  0  0  0
    5.6584    0.4285    0.0000 H   0  0  0  0  0  0  0  0  0  0  0  0
    4.8794    0.5972    0.0000 H   0  0  0  0  0  0  0  0  0  0  0  0
    4.2550   -2.2859    0.0000 H   0  0  0  0  0  0  0  0  0  0  0  0
    5.0340   -2.4546    0.0000 H   0  0  0  0  0  0  0  0  0  0  0  0
    6.4829   -0.8578    0.0000 H   0  0  0  0  0  0  0  0  0  0  0  0
    6.2395   -0.0988    0.0000 H   0  0  0  0  0  0  0  0  0  0  0  0
    5.7812   -2.2150    0.0000 H   0  0  0  0  0  0  0  0  0  0  0  0
    6.3168   -1.6247    0.0000 H   0  0  0  0  0  0  0  0  0  0  0  0
    4.8523    2.3795    0.0000 H   0  0  0  0  0  0  0  0  0  0  0  0
    4.0552    2.3825    0.0000 H   0  0  0  0  0  0  0  0  0  0  0  0
    4.9156    0.9293    0.0000 H   0  0  0  0  0  0  0  0  0  0  0  0
    5.7127    0.9262    0.0000 H   0  0  0  0  0  0  0  0  0  0  0  0
    6.5843    2.3728    0.0000 H   0  0  0  0  0  0  0  0  0  0  0  0
    5.7873    2.3759    0.0000 H   0  0  0  0  0  0  0  0  0  0  0  0
    6.6477    0.9226    0.0000 H   0  0  0  0  0  0  0  0  0  0  0  0
    7.4447    0.9196    0.0000 H   0  0  0  0  0  0  0  0  0  0  0  0
   11.8446    2.3435    0.0000 H   0  0  0  0  0  0  0  0  0  0  0  0
   11.0476    2.3435    0.0000 H   0  0  0  0  0  0  0  0  0  0  0  0
   12.9227    1.2609    0.0000 H   0  0  0  0  0  0  0  0  0  0  0  0
   12.5242    1.9512    0.0000 H   0  0  0  0  0  0  0  0  0  0  0  0
    9.6933    2.5232    0.0000 H   0  0  0  0  0  0  0  0  0  0  0  0
   11.4461   -0.7515    0.0000 H   0  0  0  0  0  0  0  0  0  0  0  0
    9.6933   -0.7861    0.0000 H   0  0  0  0  0  0  0  0  0  0  0  0
    8.2443    0.0357    0.0000 H   0  0  0  0  0  0  0  0  0  0  0  0
  1 18  1  0  0  0  0
  1 23  1  0  0  0  0
  2 25  2  0  0  0  0
  3  4  1  0  0  0  0
  3  8  1  0  0  0  0
  3 14  1  0  0  0  0
  4  6  2  0  0  0  0
  5  6  1  0  0  0  0
  5 14  2  0  0  0  0
  7 21  1  0  0  0  0
  7 25  1  0  0  0  0
  7 52  1  0  0  0  0
  8  9  1  0  0  0  0
  8 10  1  0  0  0  0
  8 28  1  0  0  0  0
  9 11  1  0  0  0  0
  9 29  1  0  0  0  0
  9 30  1  0  0  0  0
 10 12  1  0  0  0  0
 10 31  1  0  0  0  0
 10 32  1  0  0  0  0
 11 13  1  0  0  0  0
 11 33  1  0  0  0  0
 11 34  1  0  0  0  0
 12 13  1  0  0  0  0
 12 35  1  0  0  0  0
 12 36  1  0  0  0  0
 13 37  1  0  0  0  0
 13 38  1  0  0  0  0
 14 15  1  0  0  0  0
 15 16  1  0  0  0  0
 15 39  1  0  0  0  0
 15 40  1  0  0  0  0
 16 17  1  0  0  0  0
 16 41  1  0  0  0  0
 16 42  1  0  0  0  0
 17 18  1  0  0  0  0
 17 43  1  0  0  0  0
 17 44  1  0  0  0  0
 18 45  1  0  0  0  0
 18 46  1  0  0  0  0
 19 20  1  0  0  0  0
 19 21  2  0  0  0  0
 19 24  1  0  0  0  0
 20 22  1  0  0  0  0
 20 47  1  0  0  0  0
 20 48  1  0  0  0  0
 21 26  1  0  0  0  0
 22 25  1  0  0  0  0
 22 49  1  0  0  0  0
 22 50  1  0  0  0  0
 23 24  2  0  0  0  0
 23 27  1  0  0  0  0
 24 51  1  0  0  0  0
 26 27  2  0  0  0  0
 26 53  1  0  0  0  0
 27 54  1  0  0  0  0
M  END
> <PUBCHEM_COMPOUND_CID>
2754

> <PUBCHEM_COMPOUND_CANONICALIZED>
1

> <PUBCHEM_CACTVS_COMPLEXITY>
485

> <PUBCHEM_CACTVS_HBOND_ACCEPTOR>
5

> <PUBCHEM_CACTVS_HBOND_DONOR>
1

> <PUBCHEM_CACTVS_ROTATABLE_BOND>
7

> <PUBCHEM_CACTVS_SUBSKEYS>
AAADceB7sAAAAAAAAAAAAAAAAAAAAWAAAAA8YIAAAAAAAACxwAAAHgAYAAAADCzhmwYx1obIBACqAidydACCCAMhooAdyAE+bIiMJjLEuZuGOCjk1BPI6Ae42bKeAEABAAACAAAAgAIAAAQAAAAAAAAAAA==

> <PUBCHEM_IUPAC_OPENEYE_NAME>
6-[4-(1-cyclohexyltetrazol-5-yl)butoxy]-3,4-dihydro-1H-quinolin-2-one

> <PUBCHEM_IUPAC_CAS_NAME>
6-[4-(1-cyclohexyl-5-tetrazolyl)butoxy]-3,4-dihydro-1H-quinolin-2-one

> <PUBCHEM_IUPAC_NAME_MARKUP>
6-[4-(1-cyclohexyltetrazol-5-yl)butoxy]-3,4-dihydro-1<I>H</I>-quinolin-2-one

> <PUBCHEM_IUPAC_NAME>
6-[4-(1-cyclohexyltetrazol-5-yl)butoxy]-3,4-dihydro-1H-quinolin-2-one

> <PUBCHEM_IUPAC_SYSTEMATIC_NAME>
6-[4-(1-cyclohexyl-1,2,3,4-tetrazol-5-yl)butoxy]-3,4-dihydro-1H-quinolin-2-one

> <PUBCHEM_IUPAC_TRADITIONAL_NAME>
6-[4-(1-cyclohexyltetrazol-5-yl)butoxy]-3,4-dihydrocarbostyril

> <PUBCHEM_IUPAC_INCHI>
InChI=1S/C20H27N5O2/c26-20-12-9-15-14-17(10-11-18(15)21-20)27-13-5-4-8-19-22-23-24-25(19)16-6-2-1-3-7-16/h10-11,14,16H,1-9,12-13H2,(H,21,26)

> <PUBCHEM_IUPAC_INCHIKEY>
RRGUKTPIGVIEKM-UHFFFAOYSA-N

> <PUBCHEM_XLOGP3_AA>
3.1

> <PUBCHEM_EXACT_MASS>
369.21647512

> <PUBCHEM_MOLECULAR_FORMULA>
C20H27N5O2

> <PUBCHEM_MOLECULAR_WEIGHT>
369.5

> <PUBCHEM_SMILES>
C1CCC(CC1)N2C(=NN=N2)CCCCOC3=CC4=C(C=C3)NC(=O)CC4

> <PUBCHEM_CONNECTIVITY_SMILES>
C1CCC(CC1)N2C(=NN=N2)CCCCOC3=CC4=C(C=C3)NC(=O)CC4

> <PUBCHEM_CACTVS_TPSA>
81.9

> <PUBCHEM_MONOISOTOPIC_WEIGHT>
369.21647512

> <PUBCHEM_TOTAL_CHARGE>
0

> <PUBCHEM_HEAVY_ATOM_COUNT>
27

> <PUBCHEM_ATOM_DEF_STEREO_COUNT>
0

> <PUBCHEM_ATOM_UDEF_STEREO_COUNT>
0

> <PUBCHEM_BOND_DEF_STEREO_COUNT>
0

> <PUBCHEM_BOND_UDEF_STEREO_COUNT>
0

> <PUBCHEM_ISOTOPIC_ATOM_COUNT>
0

> <PUBCHEM_COMPONENT_COUNT>
1

> <PUBCHEM_CACTVS_TAUTO_COUNT>
-1

> <PUBCHEM_COORDINATE_TYPE>
1
5
255

> <PUBCHEM_BONDANNOTATIONS>
19  21  8
19  24  8
21  26  8
23  24  8
23  27  8
26  27  8
3  14  8
3  4  8
4  6  8
5  14  8
5  6  8

$$$$
