44462760
  -OEChem-10172515072D

 55 58  0     0  0  0  0  0  0999 V2000
    5.9641    3.4604    0.0000 S   0  0  0  0  0  0  0  0  0  0  0  0
    3.7321   -2.0784    0.0000 S   0  0  0  0  0  0  0  0  0  0  0  0
    3.7321    0.9216    0.0000 F   0  0  0  0  0  0  0  0  0  0  0  0
    2.0000   -3.0784    0.0000 F   0  0  0  0  0  0  0  0  0  0  0  0
    5.4641   -3.0784    0.0000 F   0  0  0  0  0  0  0  0  0  0  0  0
    2.7321   -2.0784    0.0000 O   0  0  0  0  0  0  0  0  0  0  0  0
    4.7321   -2.0784    0.0000 O   0  0  0  0  0  0  0  0  0  0  0  0
    4.6551    2.5094    0.0000 N   0  0  0  0  0  0  0  0  0  0  0  0
    3.7321   -1.0784    0.0000 N   0  0  0  0  0  0  0  0  0  0  0  0
    7.4321    1.2222    0.0000 N   0  0  0  0  0  0  0  0  0  0  0  0
    9.1263    1.5823    0.0000 N   0  0  0  0  0  0  0  0  0  0  0  0
    8.5911   -0.0650    0.0000 N   0  0  0  0  0  0  0  0  0  0  0  0
    4.3763    4.2694    0.0000 C   0  0  0  0  0  0  0  0  0  0  0  0
    4.9641    3.4604    0.0000 C   0  0  0  0  0  0  0  0  0  0  0  0
    3.7885    5.0784    0.0000 C   0  0  0  0  0  0  0  0  0  0  0  0
    5.1853    4.8572    0.0000 C   0  0  0  0  0  0  0  0  0  0  0  0
    3.5673    3.6816    0.0000 C   0  0  0  0  0  0  0  0  0  0  0  0
    5.4641    1.9216    0.0000 C   0  0  0  0  0  0  0  0  0  0  0  0
    6.2731    2.5094    0.0000 C   0  0  0  0  0  0  0  0  0  0  0  0
    5.4641    0.9216    0.0000 C   0  0  0  0  0  0  0  0  0  0  0  0
    4.5981    0.4216    0.0000 C   0  0  0  0  0  0  0  0  0  0  0  0
    7.2242    2.2003    0.0000 C   0  0  0  0  0  0  0  0  0  0  0  0
    4.5981   -0.5784    0.0000 C   0  0  0  0  0  0  0  0  0  0  0  0
    6.3301    0.4216    0.0000 C   0  0  0  0  0  0  0  0  0  0  0  0
    5.4641   -1.0784    0.0000 C   0  0  0  0  0  0  0  0  0  0  0  0
    6.3301   -0.5784    0.0000 C   0  0  0  0  0  0  0  0  0  0  0  0
    7.9673    2.8695    0.0000 C   0  0  0  0  0  0  0  0  0  0  0  0
    3.7321   -3.0784    0.0000 C   0  0  0  0  0  0  0  0  0  0  0  0
    2.8660   -3.5784    0.0000 C   0  0  0  0  0  0  0  0  0  0  0  0
    4.5981   -3.5784    0.0000 C   0  0  0  0  0  0  0  0  0  0  0  0
    8.9184    2.5604    0.0000 C   0  0  0  0  0  0  0  0  0  0  0  0
    8.3831    0.9132    0.0000 C   0  0  0  0  0  0  0  0  0  0  0  0
    2.8660   -4.5784    0.0000 C   0  0  0  0  0  0  0  0  0  0  0  0
    4.5981   -4.5784    0.0000 C   0  0  0  0  0  0  0  0  0  0  0  0
    3.7321   -5.0784    0.0000 C   0  0  0  0  0  0  0  0  0  0  0  0
    4.2901    5.4429    0.0000 H   0  0  0  0  0  0  0  0  0  0  0  0
    3.4241    5.5800    0.0000 H   0  0  0  0  0  0  0  0  0  0  0  0
    3.2869    4.7140    0.0000 H   0  0  0  0  0  0  0  0  0  0  0  0
    5.5498    4.3556    0.0000 H   0  0  0  0  0  0  0  0  0  0  0  0
    5.6869    5.2216    0.0000 H   0  0  0  0  0  0  0  0  0  0  0  0
    4.8209    5.3588    0.0000 H   0  0  0  0  0  0  0  0  0  0  0  0
    3.2029    4.1832    0.0000 H   0  0  0  0  0  0  0  0  0  0  0  0
    3.0657    3.3172    0.0000 H   0  0  0  0  0  0  0  0  0  0  0  0
    3.9317    3.1801    0.0000 H   0  0  0  0  0  0  0  0  0  0  0  0
    6.8671    0.7316    0.0000 H   0  0  0  0  0  0  0  0  0  0  0  0
    3.1951   -0.7684    0.0000 H   0  0  0  0  0  0  0  0  0  0  0  0
    5.4641   -1.6984    0.0000 H   0  0  0  0  0  0  0  0  0  0  0  0
    6.8671   -0.8884    0.0000 H   0  0  0  0  0  0  0  0  0  0  0  0
    7.8384    3.4759    0.0000 H   0  0  0  0  0  0  0  0  0  0  0  0
    9.3791    2.9753    0.0000 H   0  0  0  0  0  0  0  0  0  0  0  0
    2.3291   -4.8884    0.0000 H   0  0  0  0  0  0  0  0  0  0  0  0
    5.1350   -4.8884    0.0000 H   0  0  0  0  0  0  0  0  0  0  0  0
    3.7321   -5.6984    0.0000 H   0  0  0  0  0  0  0  0  0  0  0  0
    9.1807   -0.2566    0.0000 H   0  0  0  0  0  0  0  0  0  0  0  0
    8.1303   -0.4798    0.0000 H   0  0  0  0  0  0  0  0  0  0  0  0
  1 14  1  0  0  0  0
  1 19  1  0  0  0  0
  2  6  2  0  0  0  0
  2  7  2  0  0  0  0
  2  9  1  0  0  0  0
  2 28  1  0  0  0  0
  3 21  1  0  0  0  0
  4 29  1  0  0  0  0
  5 30  1  0  0  0  0
  8 14  2  0  0  0  0
  8 18  1  0  0  0  0
  9 23  1  0  0  0  0
  9 46  1  0  0  0  0
 10 22  2  0  0  0  0
 10 32  1  0  0  0  0
 11 31  1  0  0  0  0
 11 32  2  0  0  0  0
 12 32  1  0  0  0  0
 12 54  1  0  0  0  0
 12 55  1  0  0  0  0
 13 14  1  0  0  0  0
 13 15  1  0  0  0  0
 13 16  1  0  0  0  0
 13 17  1  0  0  0  0
 15 36  1  0  0  0  0
 15 37  1  0  0  0  0
 15 38  1  0  0  0  0
 16 39  1  0  0  0  0
 16 40  1  0  0  0  0
 16 41  1  0  0  0  0
 17 42  1  0  0  0  0
 17 43  1  0  0  0  0
 17 44  1  0  0  0  0
 18 19  2  0  0  0  0
 18 20  1  0  0  0  0
 19 22  1  0  0  0  0
 20 21  2  0  0  0  0
 20 24  1  0  0  0  0
 21 23  1  0  0  0  0
 22 27  1  0  0  0  0
 23 25  2  0  0  0  0
 24 26  2  0  0  0  0
 24 45  1  0  0  0  0
 25 26  1  0  0  0  0
 25 47  1  0  0  0  0
 26 48  1  0  0  0  0
 27 31  2  0  0  0  0
 27 49  1  0  0  0  0
 28 29  2  0  0  0  0
 28 30  1  0  0  0  0
 29 33  1  0  0  0  0
 30 34  2  0  0  0  0
 31 50  1  0  0  0  0
 33 35  2  0  0  0  0
 33 51  1  0  0  0  0
 34 35  1  0  0  0  0
 34 52  1  0  0  0  0
 35 53  1  0  0  0  0
M  END
> <PUBCHEM_COMPOUND_CID>
44462760

> <PUBCHEM_COMPOUND_CANONICALIZED>
1

> <PUBCHEM_CACTVS_COMPLEXITY>
817

> <PUBCHEM_CACTVS_HBOND_ACCEPTOR>
11

> <PUBCHEM_CACTVS_HBOND_DONOR>
2

> <PUBCHEM_CACTVS_ROTATABLE_BOND>
6

> <PUBCHEM_CACTVS_SUBSKEYS>
AAADceB7sYBgAAAAAAAAAAAAAAAAAWAAAAA8YIAAAAAAAAAB9AAAHQQQQAAADgjBXgw/0ZZIEAqkAzRnZHDC8LlxCrgJ2DQ4ZJiIKKLg2dGEJAhokALoyCcQgMAOAAAAQAAAAAAAAACAAAAAAAAAAAAAAA==

> <PUBCHEM_IUPAC_OPENEYE_NAME>
N-[3-[5-(2-aminopyrimidin-4-yl)-2-tert-butyl-thiazol-4-yl]-2-fluoro-phenyl]-2,6-difluoro-benzenesulfonamide

> <PUBCHEM_IUPAC_CAS_NAME>
N-[3-[5-(2-amino-4-pyrimidinyl)-2-tert-butyl-4-thiazolyl]-2-fluorophenyl]-2,6-difluorobenzenesulfonamide

> <PUBCHEM_IUPAC_NAME_MARKUP>
<I>N</I>-[3-[5-(2-aminopyrimidin-4-yl)-2-<I>tert</I>-butyl-1,3-thiazol-4-yl]-2-fluorophenyl]-2,6-difluorobenzenesulfonamide

> <PUBCHEM_IUPAC_NAME>
N-[3-[5-(2-aminopyrimidin-4-yl)-2-tert-butyl-1,3-thiazol-4-yl]-2-fluorophenyl]-2,6-difluorobenzenesulfonamide

> <PUBCHEM_IUPAC_SYSTEMATIC_NAME>
N-[3-[5-(2-azanylpyrimidin-4-yl)-2-tert-butyl-1,3-thiazol-4-yl]-2-fluoranyl-phenyl]-2,6-bis(fluoranyl)benzenesulfonamide

> <PUBCHEM_IUPAC_TRADITIONAL_NAME>
N-[3-[5-(2-aminopyrimidin-4-yl)-2-tert-butyl-thiazol-4-yl]-2-fluoro-phenyl]-2,6-difluoro-benzenesulfonamide

> <PUBCHEM_IUPAC_INCHI>
InChI=1S/C23H20F3N5O2S2/c1-23(2,3)21-30-18(19(34-21)16-10-11-28-22(27)29-16)12-6-4-9-15(17(12)26)31-35(32,33)20-13(24)7-5-8-14(20)25/h4-11,31H,1-3H3,(H2,27,28,29)

> <PUBCHEM_IUPAC_INCHIKEY>
BFSMGDJOXZAERB-UHFFFAOYSA-N

> <PUBCHEM_XLOGP3_AA>
4.8

> <PUBCHEM_EXACT_MASS>
519.10105173

> <PUBCHEM_MOLECULAR_FORMULA>
C23H20F3N5O2S2

> <PUBCHEM_MOLECULAR_WEIGHT>
519.6

> <PUBCHEM_SMILES>
CC(C)(C)C1=NC(=C(S1)C2=NC(=NC=C2)N)C3=C(C(=CC=C3)NS(=O)(=O)C4=C(C=CC=C4F)F)F

> <PUBCHEM_CONNECTIVITY_SMILES>
CC(C)(C)C1=NC(=C(S1)C2=NC(=NC=C2)N)C3=C(C(=CC=C3)NS(=O)(=O)C4=C(C=CC=C4F)F)F

> <PUBCHEM_CACTVS_TPSA>
147

> <PUBCHEM_MONOISOTOPIC_WEIGHT>
519.10105173

> <PUBCHEM_TOTAL_CHARGE>
0

> <PUBCHEM_HEAVY_ATOM_COUNT>
35

> <PUBCHEM_ATOM_DEF_STEREO_COUNT>
0

> <PUBCHEM_ATOM_UDEF_STEREO_COUNT>
0

> <PUBCHEM_BOND_DEF_STEREO_COUNT>
0

> <PUBCHEM_BOND_UDEF_STEREO_COUNT>
0

> <PUBCHEM_ISOTOPIC_ATOM_COUNT>
0

> <PUBCHEM_COMPONENT_COUNT>
1

> <PUBCHEM_CACTVS_TAUTO_COUNT>
-1

> <PUBCHEM_COORDINATE_TYPE>
1
5
255

> <PUBCHEM_BONDANNOTATIONS>
1  14  8
1  19  8
10  22  8
10  32  8
11  31  8
11  32  8
18  19  8
20  21  8
20  24  8
21  23  8
22  27  8
23  25  8
24  26  8
25  26  8
27  31  8
28  29  8
28  30  8
29  33  8
30  34  8
33  35  8
34  35  8
8  14  8
8  18  8

$$$$
