6480466
  -OEChem-10172515082D

 63 67  0     1  0  0  0  0  0999 V2000
    3.3968    5.9689    0.0000 F   0  0  0  0  0  0  0  0  0  0  0  0
    2.0000    5.7476    0.0000 F   0  0  0  0  0  0  0  0  0  0  0  0
    2.2212    4.3508    0.0000 F   0  0  0  0  0  0  0  0  0  0  0  0
   10.1553   -5.9119    0.0000 O   0  0  0  0  0  0  0  0  0  0  0  0
    3.1999    0.5940    0.0000 O   0  0  0  0  0  0  0  0  0  0  0  0
    8.8630   -3.5205    0.0000 O   0  0  0  0  0  0  0  0  0  0  0  0
   14.1362   -5.9689    0.0000 O   0  5  0  0  0  0  0  0  0  0  0  0
   14.1362   -4.2368    0.0000 O   0  0  0  0  0  0  0  0  0  0  0  0
    3.6180    4.5721    0.0000 O   0  0  0  0  0  0  0  0  0  0  0  0
    5.6270   -1.1694    0.0000 N   0  0  0  0  0  0  0  0  0  0  0  0
   11.1064   -4.6028    0.0000 N   0  0  0  0  0  0  0  0  0  0  0  0
   12.0526   -5.9076    0.0000 N   0  0  0  0  0  0  0  0  0  0  0  0
   13.6362   -5.1028    0.0000 N   0  3  0  0  0  0  0  0  0  0  0  0
    9.5675   -5.1028    0.0000 C   0  0  2  0  0  0  0  0  0  0  0  0
    4.0089    0.0062    0.0000 C   0  0  0  0  0  0  0  0  0  0  0  0
    3.9044   -0.9883    0.0000 C   0  0  0  0  0  0  0  0  0  0  0  0
    4.9225    0.4129    0.0000 C   0  0  0  0  0  0  0  0  0  0  0  0
    4.7134   -1.5761    0.0000 C   0  0  0  0  0  0  0  0  0  0  0  0
    5.7315   -0.1749    0.0000 C   0  0  0  0  0  0  0  0  0  0  0  0
   10.1553   -4.2938    0.0000 C   0  0  0  0  0  0  0  0  0  0  0  0
    8.7585   -4.5151    0.0000 C   0  0  0  0  0  0  0  0  0  0  0  0
    8.7585   -5.6906    0.0000 C   0  0  0  0  0  0  0  0  0  0  0  0
    6.4360   -1.7572    0.0000 C   0  0  0  0  0  0  0  0  0  0  0  0
   11.1064   -5.6028    0.0000 C   0  0  0  0  0  0  0  0  0  0  0  0
   12.0526   -4.2981    0.0000 C   0  0  0  0  0  0  0  0  0  0  0  0
    6.3315   -2.7517    0.0000 C   0  0  0  0  0  0  0  0  0  0  0  0
    7.3495   -1.3504    0.0000 C   0  0  0  0  0  0  0  0  0  0  0  0
    8.0540   -2.9327    0.0000 C   0  0  0  0  0  0  0  0  0  0  0  0
   12.6362   -5.1028    0.0000 C   0  0  0  0  0  0  0  0  0  0  0  0
    7.1405   -3.3395    0.0000 C   0  0  0  0  0  0  0  0  0  0  0  0
    8.1586   -1.9382    0.0000 C   0  0  0  0  0  0  0  0  0  0  0  0
    3.3045    1.5885    0.0000 C   0  0  0  0  0  0  0  0  0  0  0  0
    2.4954    2.1763    0.0000 C   0  0  0  0  0  0  0  0  0  0  0  0
    4.2180    1.9952    0.0000 C   0  0  0  0  0  0  0  0  0  0  0  0
    2.6000    3.1708    0.0000 C   0  0  0  0  0  0  0  0  0  0  0  0
    4.3225    2.9898    0.0000 C   0  0  0  0  0  0  0  0  0  0  0  0
    3.5135    3.5775    0.0000 C   0  0  0  0  0  0  0  0  0  0  0  0
    2.8090    5.1598    0.0000 C   0  0  0  0  0  0  0  0  0  0  0  0
    4.0737    0.6228    0.0000 H   0  0  0  0  0  0  0  0  0  0  0  0
    3.3084   -0.8174    0.0000 H   0  0  0  0  0  0  0  0  0  0  0  0
    3.6326   -1.5456    0.0000 H   0  0  0  0  0  0  0  0  0  0  0  0
    5.3685    0.8436    0.0000 H   0  0  0  0  0  0  0  0  0  0  0  0
    4.5758    0.9269    0.0000 H   0  0  0  0  0  0  0  0  0  0  0  0
    4.2674   -2.0068    0.0000 H   0  0  0  0  0  0  0  0  0  0  0  0
    5.0601   -2.0901    0.0000 H   0  0  0  0  0  0  0  0  0  0  0  0
    6.3275   -0.3458    0.0000 H   0  0  0  0  0  0  0  0  0  0  0  0
    6.0033    0.3824    0.0000 H   0  0  0  0  0  0  0  0  0  0  0  0
   10.4075   -3.7274    0.0000 H   0  0  0  0  0  0  0  0  0  0  0  0
    9.6184   -3.9838    0.0000 H   0  0  0  0  0  0  0  0  0  0  0  0
    8.1625   -4.3442    0.0000 H   0  0  0  0  0  0  0  0  0  0  0  0
    8.4867   -5.0723    0.0000 H   0  0  0  0  0  0  0  0  0  0  0  0
    8.3941   -5.1890    0.0000 H   0  0  0  0  0  0  0  0  0  0  0  0
    8.2569   -6.0551    0.0000 H   0  0  0  0  0  0  0  0  0  0  0  0
    9.1229   -6.1922    0.0000 H   0  0  0  0  0  0  0  0  0  0  0  0
   12.2452   -3.7088    0.0000 H   0  0  0  0  0  0  0  0  0  0  0  0
    5.7651   -3.0039    0.0000 H   0  0  0  0  0  0  0  0  0  0  0  0
    7.4143   -0.7338    0.0000 H   0  0  0  0  0  0  0  0  0  0  0  0
    7.0757   -3.9561    0.0000 H   0  0  0  0  0  0  0  0  0  0  0  0
    8.7250   -1.6860    0.0000 H   0  0  0  0  0  0  0  0  0  0  0  0
    1.9290    1.9241    0.0000 H   0  0  0  0  0  0  0  0  0  0  0  0
    4.7196    1.6308    0.0000 H   0  0  0  0  0  0  0  0  0  0  0  0
    2.0984    3.5352    0.0000 H   0  0  0  0  0  0  0  0  0  0  0  0
    4.8889    3.2419    0.0000 H   0  0  0  0  0  0  0  0  0  0  0  0
  1 38  1  0  0  0  0
  2 38  1  0  0  0  0
  3 38  1  0  0  0  0
  4 14  1  0  0  0  0
  4 24  1  0  0  0  0
  5 15  1  0  0  0  0
  5 32  1  0  0  0  0
  6 21  1  0  0  0  0
  6 28  1  0  0  0  0
  7 13  1  0  0  0  0
  8 13  2  0  0  0  0
  9 37  1  0  0  0  0
  9 38  1  0  0  0  0
 10 18  1  0  0  0  0
 10 19  1  0  0  0  0
 10 23  1  0  0  0  0
 11 20  1  0  0  0  0
 11 24  1  0  0  0  0
 11 25  1  0  0  0  0
 12 24  2  0  0  0  0
 12 29  1  0  0  0  0
 13 29  1  0  0  0  0
 14 20  1  0  0  0  0
 14 21  1  0  0  0  0
 14 22  1  6  0  0  0
 15 16  1  0  0  0  0
 15 17  1  0  0  0  0
 15 39  1  0  0  0  0
 16 18  1  0  0  0  0
 16 40  1  0  0  0  0
 16 41  1  0  0  0  0
 17 19  1  0  0  0  0
 17 42  1  0  0  0  0
 17 43  1  0  0  0  0
 18 44  1  0  0  0  0
 18 45  1  0  0  0  0
 19 46  1  0  0  0  0
 19 47  1  0  0  0  0
 20 48  1  0  0  0  0
 20 49  1  0  0  0  0
 21 50  1  0  0  0  0
 21 51  1  0  0  0  0
 22 52  1  0  0  0  0
 22 53  1  0  0  0  0
 22 54  1  0  0  0  0
 23 26  2  0  0  0  0
 23 27  1  0  0  0  0
 25 29  2  0  0  0  0
 25 55  1  0  0  0  0
 26 30  1  0  0  0  0
 26 56  1  0  0  0  0
 27 31  2  0  0  0  0
 27 57  1  0  0  0  0
 28 30  2  0  0  0  0
 28 31  1  0  0  0  0
 30 58  1  0  0  0  0
 31 59  1  0  0  0  0
 32 33  2  0  0  0  0
 32 34  1  0  0  0  0
 33 35  1  0  0  0  0
 33 60  1  0  0  0  0
 34 36  2  0  0  0  0
 34 61  1  0  0  0  0
 35 37  2  0  0  0  0
 35 62  1  0  0  0  0
 36 37  1  0  0  0  0
 36 63  1  0  0  0  0
M  CHG  2   7  -1  13   1
M  END
> <PUBCHEM_COMPOUND_CID>
6480466

> <PUBCHEM_COMPOUND_CANONICALIZED>
1

> <PUBCHEM_CACTVS_COMPLEXITY>
795

> <PUBCHEM_CACTVS_HBOND_ACCEPTOR>
11

> <PUBCHEM_CACTVS_HBOND_DONOR>
0

> <PUBCHEM_CACTVS_ROTATABLE_BOND>
7

> <PUBCHEM_CACTVS_SUBSKEYS>
AAADceB7uYAAAAAAAAAAAAAAAAAAAWLAAAA8YIAAAAAWAAAB0AAAHwAEAAAADFzhkhY/9pccVAChADZnZwCCiC0xMqApyAAefIqPbiLEuZufOCjuwJPa6CfwQAAAAUAAAAAAAAACgAAAAAAAAAAAAAAAAA==

> <PUBCHEM_IUPAC_OPENEYE_NAME>
(2R)-2-methyl-6-nitro-2-[[4-[4-[4-(trifluoromethoxy)phenoxy]-1-piperidyl]phenoxy]methyl]-3H-imidazo[2,1-b]oxazole

> <PUBCHEM_IUPAC_CAS_NAME>
(2R)-2-methyl-6-nitro-2-[[4-[4-[4-(trifluoromethoxy)phenoxy]-1-piperidinyl]phenoxy]methyl]-3H-imidazo[2,1-b]oxazole

> <PUBCHEM_IUPAC_NAME_MARKUP>
(2<I>R</I>)-2-methyl-6-nitro-2-[[4-[4-[4-(trifluoromethoxy)phenoxy]piperidin-1-yl]phenoxy]methyl]-3<I>H</I>-imidazo[2,1-b][1,3]oxazole

> <PUBCHEM_IUPAC_NAME>
(2R)-2-methyl-6-nitro-2-[[4-[4-[4-(trifluoromethoxy)phenoxy]piperidin-1-yl]phenoxy]methyl]-3H-imidazo[2,1-b][1,3]oxazole

> <PUBCHEM_IUPAC_SYSTEMATIC_NAME>
(2R)-2-methyl-6-nitro-2-[[4-[4-[4-(trifluoromethyloxy)phenoxy]piperidin-1-yl]phenoxy]methyl]-3H-imidazo[2,1-b][1,3]oxazole

> <PUBCHEM_IUPAC_TRADITIONAL_NAME>
(2R)-2-methyl-6-nitro-2-[[4-[4-[4-(trifluoromethoxy)phenoxy]piperidino]phenoxy]methyl]-3H-imidazo[2,1-b]oxazole

> <PUBCHEM_IUPAC_INCHI>
InChI=1S/C25H25F3N4O6/c1-24(15-31-14-22(32(33)34)29-23(31)38-24)16-35-18-4-2-17(3-5-18)30-12-10-20(11-13-30)36-19-6-8-21(9-7-19)37-25(26,27)28/h2-9,14,20H,10-13,15-16H2,1H3/t24-/m1/s1

> <PUBCHEM_IUPAC_INCHIKEY>
XDAOLTSRNUSPPH-XMMPIXPASA-N

> <PUBCHEM_XLOGP3_AA>
5.6

> <PUBCHEM_EXACT_MASS>
534.17261902

> <PUBCHEM_MOLECULAR_FORMULA>
C25H25F3N4O6

> <PUBCHEM_MOLECULAR_WEIGHT>
534.5

> <PUBCHEM_SMILES>
C[C@@]1(CN2C=C(N=C2O1)[N+](=O)[O-])COC3=CC=C(C=C3)N4CCC(CC4)OC5=CC=C(C=C5)OC(F)(F)F

> <PUBCHEM_CONNECTIVITY_SMILES>
CC1(CN2C=C(N=C2O1)[N+](=O)[O-])COC3=CC=C(C=C3)N4CCC(CC4)OC5=CC=C(C=C5)OC(F)(F)F

> <PUBCHEM_CACTVS_TPSA>
104

> <PUBCHEM_MONOISOTOPIC_WEIGHT>
534.17261902

> <PUBCHEM_TOTAL_CHARGE>
0

> <PUBCHEM_HEAVY_ATOM_COUNT>
38

> <PUBCHEM_ATOM_DEF_STEREO_COUNT>
1

> <PUBCHEM_ATOM_UDEF_STEREO_COUNT>
0

> <PUBCHEM_BOND_DEF_STEREO_COUNT>
0

> <PUBCHEM_BOND_UDEF_STEREO_COUNT>
0

> <PUBCHEM_ISOTOPIC_ATOM_COUNT>
0

> <PUBCHEM_COMPONENT_COUNT>
1

> <PUBCHEM_CACTVS_TAUTO_COUNT>
-1

> <PUBCHEM_COORDINATE_TYPE>
1
5
255

> <PUBCHEM_BONDANNOTATIONS>
11  24  8
11  25  8
12  24  8
12  29  8
14  22  6
23  26  8
23  27  8
25  29  8
26  30  8
27  31  8
28  30  8
28  31  8
32  33  8
32  34  8
33  35  8
34  36  8
35  37  8
36  37  8

$$$$
