6918132
  -OEChem-10172515112D

 37 37  0     1  0  0  0  0  0999 V2000
    2.9874    0.0000    0.0000 Cl  0  0  0  0  0  0  0  0  0  0  0  0
    2.2690    3.3631    0.0000 S   0  0  0  0  0  0  0  0  0  0  0  0
    4.0812    3.5583    0.0000 S   0  0  0  0  0  0  0  0  0  0  0  0
    5.6648    4.3631    0.0000 S   0  0  0  0  0  0  0  0  0  0  0  0
    1.7690    2.4970    0.0000 O   0  0  0  0  0  0  0  0  0  0  0  0
    2.7690    2.4970    0.0000 O   0  0  0  0  0  0  0  0  0  0  0  0
    5.6648    5.3631    0.0000 O   0  0  0  0  0  0  0  0  0  0  0  0
    5.6648    3.3631    0.0000 O   0  0  0  0  0  0  0  0  0  0  0  0
    2.2690    6.3631    0.0000 N   0  0  0  0  0  0  0  0  0  0  0  0
    6.6648    4.3631    0.0000 N   0  0  0  0  0  0  0  0  0  0  0  0
    1.4030    3.8631    0.0000 C   0  0  2  0  0  0  0  0  0  0  0  0
    2.2690    5.3631    0.0000 C   0  0  1  0  0  0  0  0  0  0  0  0
    1.4030    4.8631    0.0000 C   0  0  0  0  0  0  0  0  0  0  0  0
    3.1350    4.8631    0.0000 C   0  0  0  0  0  0  0  0  0  0  0  0
    3.1350    3.8631    0.0000 C   0  0  0  0  0  0  0  0  0  0  0  0
    0.5369    3.3631    0.0000 C   0  0  0  0  0  0  0  0  0  0  0  0
    4.0812    5.1678    0.0000 C   0  0  0  0  0  0  0  0  0  0  0  0
    4.6648    4.3631    0.0000 C   0  0  0  0  0  0  0  0  0  0  0  0
    1.4030    6.8631    0.0000 C   0  0  0  0  0  0  0  0  0  0  0  0
    1.4030    7.8631    0.0000 C   0  0  0  0  0  0  0  0  0  0  0  0
    1.4030    3.2431    0.0000 H   0  0  0  0  0  0  0  0  0  0  0  0
    2.8059    5.6731    0.0000 H   0  0  0  0  0  0  0  0  0  0  0  0
    1.1909    5.4457    0.0000 H   0  0  0  0  0  0  0  0  0  0  0  0
    0.7924    4.7554    0.0000 H   0  0  0  0  0  0  0  0  0  0  0  0
    0.2269    3.9000    0.0000 H   0  0  0  0  0  0  0  0  0  0  0  0
    0.0000    3.0531    0.0000 H   0  0  0  0  0  0  0  0  0  0  0  0
    0.8469    2.8261    0.0000 H   0  0  0  0  0  0  0  0  0  0  0  0
    2.8059    6.6731    0.0000 H   0  0  0  0  0  0  0  0  0  0  0  0
    4.2738    5.7571    0.0000 H   0  0  0  0  0  0  0  0  0  0  0  0
    0.7924    6.9707    0.0000 H   0  0  0  0  0  0  0  0  0  0  0  0
    1.1909    6.2805    0.0000 H   0  0  0  0  0  0  0  0  0  0  0  0
    2.0230    7.8631    0.0000 H   0  0  0  0  0  0  0  0  0  0  0  0
    1.4030    8.4831    0.0000 H   0  0  0  0  0  0  0  0  0  0  0  0
    0.7830    7.8631    0.0000 H   0  0  0  0  0  0  0  0  0  0  0  0
    6.9748    4.9000    0.0000 H   0  0  0  0  0  0  0  0  0  0  0  0
    6.9748    3.8261    0.0000 H   0  0  0  0  0  0  0  0  0  0  0  0
    3.9874    0.0000    0.0000 H   0  0  0  0  0  0  0  0  0  0  0  0
  1 37  1  0  0  0  0
  2  5  2  0  0  0  0
  2  6  2  0  0  0  0
  2 11  1  0  0  0  0
  2 15  1  0  0  0  0
  3 15  1  0  0  0  0
  3 18  1  0  0  0  0
  4  7  2  0  0  0  0
  4  8  2  0  0  0  0
  4 10  1  0  0  0  0
  4 18  1  0  0  0  0
 12  9  1  6  0  0  0
  9 19  1  0  0  0  0
  9 28  1  0  0  0  0
 10 35  1  0  0  0  0
 10 36  1  0  0  0  0
 11 13  1  0  0  0  0
 11 16  1  1  0  0  0
 11 21  1  0  0  0  0
 12 13  1  0  0  0  0
 12 14  1  0  0  0  0
 12 22  1  0  0  0  0
 13 23  1  0  0  0  0
 13 24  1  0  0  0  0
 14 15  2  0  0  0  0
 14 17  1  0  0  0  0
 16 25  1  0  0  0  0
 16 26  1  0  0  0  0
 16 27  1  0  0  0  0
 17 18  2  0  0  0  0
 17 29  1  0  0  0  0
 19 20  1  0  0  0  0
 19 30  1  0  0  0  0
 19 31  1  0  0  0  0
 20 32  1  0  0  0  0
 20 33  1  0  0  0  0
 20 34  1  0  0  0  0
M  END
> <PUBCHEM_COMPOUND_CID>
6918132

> <PUBCHEM_COMPOUND_CANONICALIZED>
1

> <PUBCHEM_CACTVS_COMPLEXITY>
534

> <PUBCHEM_CACTVS_HBOND_ACCEPTOR>
7

> <PUBCHEM_CACTVS_HBOND_DONOR>
3

> <PUBCHEM_CACTVS_ROTATABLE_BOND>
3

> <PUBCHEM_CACTVS_SUBSKEYS>
AAADceBzOABkAAAAAAAAAAAAAAAAASAAAAAkAAAAAAAAAEgBgAAAHAQQQAAADCjFWASyAYLAAAqEAiBCAHDDAZAgCBBAiJgIBIgIIAIgkQGEAAhgkACoCAMAgAAOAAAAAAAAAAAAAAAAAAAAAAAAAAAAAA==

> <PUBCHEM_IUPAC_OPENEYE_NAME>
(4S,6S)-4-(ethylamino)-6-methyl-7,7-dioxo-5,6-dihydro-4H-thieno[2,3-b]thiopyran-2-sulfonamide;hydrochloride

> <PUBCHEM_IUPAC_CAS_NAME>
(4S,6S)-4-(ethylamino)-6-methyl-7,7-dioxo-5,6-dihydro-4H-thieno[2,3-b]thiopyran-2-sulfonamide;hydrochloride

> <PUBCHEM_IUPAC_NAME_MARKUP>
(4<I>S</I>,6<I>S</I>)-4-(ethylamino)-6-methyl-7,7-dioxo-5,6-dihydro-4<I>H</I>-thieno[2,3-b]thiopyran-2-sulfonamide;hydrochloride

> <PUBCHEM_IUPAC_NAME>
(4S,6S)-4-(ethylamino)-6-methyl-7,7-dioxo-5,6-dihydro-4H-thieno[2,3-b]thiopyran-2-sulfonamide;hydrochloride

> <PUBCHEM_IUPAC_SYSTEMATIC_NAME>
(4S,6S)-4-(ethylamino)-6-methyl-7,7-bis(oxidanylidene)-5,6-dihydro-4H-thieno[2,3-b]thiopyran-2-sulfonamide;hydrochloride

> <PUBCHEM_IUPAC_TRADITIONAL_NAME>
(4S,6S)-4-(ethylamino)-7,7-diketo-6-methyl-5,6-dihydro-4H-thieno[2,3-b]thiopyran-2-sulfonamide;hydrochloride

> <PUBCHEM_IUPAC_INCHI>
InChI=1S/C10H16N2O4S3.ClH/c1-3-12-8-4-6(2)18(13,14)10-7(8)5-9(17-10)19(11,15)16;/h5-6,8,12H,3-4H2,1-2H3,(H2,11,15,16);1H/t6-,8-;/m0./s1

> <PUBCHEM_IUPAC_INCHIKEY>
OSRUSFPMRGDLAG-QMGYSKNISA-N

> <PUBCHEM_EXACT_MASS>
360.0038982

> <PUBCHEM_MOLECULAR_FORMULA>
C10H17ClN2O4S3

> <PUBCHEM_MOLECULAR_WEIGHT>
360.9

> <PUBCHEM_SMILES>
CCN[C@H]1C[C@@H](S(=O)(=O)C2=C1C=C(S2)S(=O)(=O)N)C.Cl

> <PUBCHEM_CONNECTIVITY_SMILES>
CCNC1CC(S(=O)(=O)C2=C1C=C(S2)S(=O)(=O)N)C.Cl

> <PUBCHEM_CACTVS_TPSA>
151

> <PUBCHEM_MONOISOTOPIC_WEIGHT>
360.0038982

> <PUBCHEM_TOTAL_CHARGE>
0

> <PUBCHEM_HEAVY_ATOM_COUNT>
20

> <PUBCHEM_ATOM_DEF_STEREO_COUNT>
2

> <PUBCHEM_ATOM_UDEF_STEREO_COUNT>
0

> <PUBCHEM_BOND_DEF_STEREO_COUNT>
0

> <PUBCHEM_BOND_UDEF_STEREO_COUNT>
0

> <PUBCHEM_ISOTOPIC_ATOM_COUNT>
0

> <PUBCHEM_COMPONENT_COUNT>
2

> <PUBCHEM_CACTVS_TAUTO_COUNT>
-1

> <PUBCHEM_COORDINATE_TYPE>
1
5
255

> <PUBCHEM_BONDANNOTATIONS>
11  16  5
14  15  8
14  17  8
17  18  8
3  15  8
3  18  8
12  9  6

$$$$
