24785956
  -OEChem-10172515082D

 75 77  0     1  0  0  0  0  0999 V2000
    7.1962    6.3736    0.0000 Na  0  3  0  0  0  0  0  0  0  0  0  0
    4.5981    0.9454    0.0000 F   0  0  0  0  0  0  0  0  0  0  0  0
    7.4337   -3.9019    0.0000 F   0  0  0  0  0  0  0  0  0  0  0  0
    3.1938   -4.9131    0.0000 F   0  0  0  0  0  0  0  0  0  0  0  0
    4.0049   -6.0715    0.0000 F   0  0  0  0  0  0  0  0  0  0  0  0
    4.3522   -4.1019    0.0000 F   0  0  0  0  0  0  0  0  0  0  0  0
    7.1962   -2.5546    0.0000 O   0  0  0  0  0  0  0  0  0  0  0  0
    5.4641    0.4454    0.0000 O   0  0  0  0  0  0  0  0  0  0  0  0
    2.8660    1.9454    0.0000 O   0  0  0  0  0  0  0  0  0  0  0  0
    7.6962    5.5076    0.0000 O   0  5  0  0  0  0  0  0  0  0  0  0
    6.1962    4.6416    0.0000 O   0  0  0  0  0  0  0  0  0  0  0  0
    6.3301   -1.0546    0.0000 N   0  0  0  0  0  0  0  0  0  0  0  0
    5.4641   -2.5546    0.0000 N   0  0  0  0  0  0  0  0  0  0  0  0
    7.1962    1.1775    0.0000 N   0  0  0  0  0  0  0  0  0  0  0  0
    7.6962    0.3115    0.0000 C   0  0  1  0  0  0  0  0  0  0  0  0
    7.1962   -0.5546    0.0000 C   0  0  0  0  0  0  0  0  0  0  0  0
    4.5981   -2.0546    0.0000 C   0  0  0  0  0  0  0  0  0  0  0  0
    6.3301   -2.0546    0.0000 C   0  0  0  0  0  0  0  0  0  0  0  0
    4.5981   -1.0546    0.0000 C   0  0  0  0  0  0  0  0  0  0  0  0
    8.6962    0.3115    0.0000 C   0  0  0  0  0  0  0  0  0  0  0  0
    5.4641   -0.5546    0.0000 C   0  0  0  0  0  0  0  0  0  0  0  0
    5.4641   -3.5546    0.0000 C   0  0  0  0  0  0  0  0  0  0  0  0
    7.6962    2.0435    0.0000 C   0  0  0  0  0  0  0  0  0  0  0  0
    7.1962    2.9095    0.0000 C   0  0  0  0  0  0  0  0  0  0  0  0
    3.7321   -0.5546    0.0000 C   0  0  0  0  0  0  0  0  0  0  0  0
    5.8061   -4.4943    0.0000 C   0  0  0  0  0  0  0  0  0  0  0  0
    3.7321   -2.5546    0.0000 C   0  0  0  0  0  0  0  0  0  0  0  0
    9.1962    1.1775    0.0000 C   0  0  0  0  0  0  0  0  0  0  0  0
    9.1962   -0.5546    0.0000 C   0  0  0  0  0  0  0  0  0  0  0  0
    5.1633   -5.2603    0.0000 C   0  0  0  0  0  0  0  0  0  0  0  0
    7.6962    3.7756    0.0000 C   0  0  0  0  0  0  0  0  0  0  0  0
    3.7321    0.4454    0.0000 C   0  0  0  0  0  0  0  0  0  0  0  0
    2.8660   -1.0546    0.0000 C   0  0  0  0  0  0  0  0  0  0  0  0
    6.7909   -4.6679    0.0000 C   0  0  0  0  0  0  0  0  0  0  0  0
   10.1962    1.1775    0.0000 C   0  0  0  0  0  0  0  0  0  0  0  0
   10.1962   -0.5546    0.0000 C   0  0  0  0  0  0  0  0  0  0  0  0
   10.6962    0.3115    0.0000 C   0  0  0  0  0  0  0  0  0  0  0  0
    5.5054   -6.2000    0.0000 C   0  0  0  0  0  0  0  0  0  0  0  0
    2.8660    0.9454    0.0000 C   0  0  0  0  0  0  0  0  0  0  0  0
    4.1786   -5.0867    0.0000 C   0  0  0  0  0  0  0  0  0  0  0  0
    7.1330   -5.6076    0.0000 C   0  0  0  0  0  0  0  0  0  0  0  0
    2.0000   -0.5546    0.0000 C   0  0  0  0  0  0  0  0  0  0  0  0
    6.4902   -6.3736    0.0000 C   0  0  0  0  0  0  0  0  0  0  0  0
    2.0000    0.4454    0.0000 C   0  0  0  0  0  0  0  0  0  0  0  0
    7.1962    4.6416    0.0000 C   0  0  0  0  0  0  0  0  0  0  0  0
    2.0000    2.4454    0.0000 C   0  0  0  0  0  0  0  0  0  0  0  0
    8.0062    0.8484    0.0000 H   0  0  0  0  0  0  0  0  0  0  0  0
    7.3038   -1.1651    0.0000 H   0  0  0  0  0  0  0  0  0  0  0  0
    6.7578   -0.1162    0.0000 H   0  0  0  0  0  0  0  0  0  0  0  0
    6.5762    1.1775    0.0000 H   0  0  0  0  0  0  0  0  0  0  0  0
    4.8948   -3.3090    0.0000 H   0  0  0  0  0  0  0  0  0  0  0  0
    6.0747   -3.4469    0.0000 H   0  0  0  0  0  0  0  0  0  0  0  0
    8.1711    1.6450    0.0000 H   0  0  0  0  0  0  0  0  0  0  0  0
    8.1711    2.4420    0.0000 H   0  0  0  0  0  0  0  0  0  0  0  0
    6.7212    3.3081    0.0000 H   0  0  0  0  0  0  0  0  0  0  0  0
    6.7212    2.5110    0.0000 H   0  0  0  0  0  0  0  0  0  0  0  0
    3.4221   -2.0176    0.0000 H   0  0  0  0  0  0  0  0  0  0  0  0
    3.1951   -2.8646    0.0000 H   0  0  0  0  0  0  0  0  0  0  0  0
    4.0421   -3.0915    0.0000 H   0  0  0  0  0  0  0  0  0  0  0  0
    8.8862    1.7144    0.0000 H   0  0  0  0  0  0  0  0  0  0  0  0
    8.8862   -1.0915    0.0000 H   0  0  0  0  0  0  0  0  0  0  0  0
    8.1711    3.3770    0.0000 H   0  0  0  0  0  0  0  0  0  0  0  0
    8.1711    4.1741    0.0000 H   0  0  0  0  0  0  0  0  0  0  0  0
    2.8660   -1.6746    0.0000 H   0  0  0  0  0  0  0  0  0  0  0  0
   10.5062    1.7144    0.0000 H   0  0  0  0  0  0  0  0  0  0  0  0
   10.5062   -1.0915    0.0000 H   0  0  0  0  0  0  0  0  0  0  0  0
   11.3162    0.3115    0.0000 H   0  0  0  0  0  0  0  0  0  0  0  0
    5.1068   -6.6749    0.0000 H   0  0  0  0  0  0  0  0  0  0  0  0
    7.7435   -5.7153    0.0000 H   0  0  0  0  0  0  0  0  0  0  0  0
    1.4631   -0.8646    0.0000 H   0  0  0  0  0  0  0  0  0  0  0  0
    6.7022   -6.9563    0.0000 H   0  0  0  0  0  0  0  0  0  0  0  0
    1.4631    0.7554    0.0000 H   0  0  0  0  0  0  0  0  0  0  0  0
    2.3100    2.9824    0.0000 H   0  0  0  0  0  0  0  0  0  0  0  0
    1.4631    2.7554    0.0000 H   0  0  0  0  0  0  0  0  0  0  0  0
    1.6900    1.9085    0.0000 H   0  0  0  0  0  0  0  0  0  0  0  0
  2 32  1  0  0  0  0
  3 34  1  0  0  0  0
  4 40  1  0  0  0  0
  5 40  1  0  0  0  0
  6 40  1  0  0  0  0
  7 18  2  0  0  0  0
  8 21  2  0  0  0  0
  9 39  1  0  0  0  0
  9 46  1  0  0  0  0
 10 45  1  0  0  0  0
 11 45  2  0  0  0  0
 12 16  1  0  0  0  0
 12 18  1  0  0  0  0
 12 21  1  0  0  0  0
 13 17  1  0  0  0  0
 13 18  1  0  0  0  0
 13 22  1  0  0  0  0
 15 14  1  6  0  0  0
 14 23  1  0  0  0  0
 14 50  1  0  0  0  0
 15 16  1  0  0  0  0
 15 20  1  0  0  0  0
 15 47  1  0  0  0  0
 16 48  1  0  0  0  0
 16 49  1  0  0  0  0
 17 19  2  0  0  0  0
 17 27  1  0  0  0  0
 19 21  1  0  0  0  0
 19 25  1  0  0  0  0
 20 28  2  0  0  0  0
 20 29  1  0  0  0  0
 22 26  1  0  0  0  0
 22 51  1  0  0  0  0
 22 52  1  0  0  0  0
 23 24  1  0  0  0  0
 23 53  1  0  0  0  0
 23 54  1  0  0  0  0
 24 31  1  0  0  0  0
 24 55  1  0  0  0  0
 24 56  1  0  0  0  0
 25 32  2  0  0  0  0
 25 33  1  0  0  0  0
 26 30  2  0  0  0  0
 26 34  1  0  0  0  0
 27 57  1  0  0  0  0
 27 58  1  0  0  0  0
 27 59  1  0  0  0  0
 28 35  1  0  0  0  0
 28 60  1  0  0  0  0
 29 36  2  0  0  0  0
 29 61  1  0  0  0  0
 30 38  1  0  0  0  0
 30 40  1  0  0  0  0
 31 45  1  0  0  0  0
 31 62  1  0  0  0  0
 31 63  1  0  0  0  0
 32 39  1  0  0  0  0
 33 42  2  0  0  0  0
 33 64  1  0  0  0  0
 34 41  2  0  0  0  0
 35 37  2  0  0  0  0
 35 65  1  0  0  0  0
 36 37  1  0  0  0  0
 36 66  1  0  0  0  0
 37 67  1  0  0  0  0
 38 43  2  0  0  0  0
 38 68  1  0  0  0  0
 39 44  2  0  0  0  0
 41 43  1  0  0  0  0
 41 69  1  0  0  0  0
 42 44  1  0  0  0  0
 42 70  1  0  0  0  0
 43 71  1  0  0  0  0
 44 72  1  0  0  0  0
 46 73  1  0  0  0  0
 46 74  1  0  0  0  0
 46 75  1  0  0  0  0
M  CHG  2   1   1  10  -1
M  END
> <PUBCHEM_COMPOUND_CID>
24785956

> <PUBCHEM_COMPOUND_CANONICALIZED>
1

> <PUBCHEM_CACTVS_COMPLEXITY>
1090

> <PUBCHEM_CACTVS_HBOND_ACCEPTOR>
11

> <PUBCHEM_CACTVS_HBOND_DONOR>
1

> <PUBCHEM_CACTVS_ROTATABLE_BOND>
12

> <PUBCHEM_CACTVS_SUBSKEYS>
AAADceB/OeAAAAAAAAAAAAAAAAAAAAAAAAAwYMEAAAAAAAABUAAAHwAQAAAADCzBmB4zDoPABACIAiXSWACCCAAgIAAIiIEODMiMZjKEtRuUMChs1zOIqUe83LLOgAABAAAQAAAAAAIAACAAAAAAAAAAAA==

> <PUBCHEM_IUPAC_OPENEYE_NAME>
sodium 4-[[(1R)-2-[5-(2-fluoro-3-methoxy-phenyl)-3-[[2-fluoro-6-(trifluoromethyl)phenyl]methyl]-4-methyl-2,6-dioxo-pyrimidin-1-yl]-1-phenyl-ethyl]amino]butanoate

> <PUBCHEM_IUPAC_CAS_NAME>
sodium 4-[[(1R)-2-[5-(2-fluoro-3-methoxyphenyl)-3-[[2-fluoro-6-(trifluoromethyl)phenyl]methyl]-4-methyl-2,6-dioxo-1-pyrimidinyl]-1-phenylethyl]amino]butanoate

> <PUBCHEM_IUPAC_NAME_MARKUP>
sodium 4-[[(1<I>R</I>)-2-[5-(2-fluoro-3-methoxyphenyl)-3-[[2-fluoro-6-(trifluoromethyl)phenyl]methyl]-4-methyl-2,6-dioxopyrimidin-1-yl]-1-phenylethyl]amino]butanoate

> <PUBCHEM_IUPAC_NAME>
sodium 4-[[(1R)-2-[5-(2-fluoro-3-methoxyphenyl)-3-[[2-fluoro-6-(trifluoromethyl)phenyl]methyl]-4-methyl-2,6-dioxopyrimidin-1-yl]-1-phenylethyl]amino]butanoate

> <PUBCHEM_IUPAC_SYSTEMATIC_NAME>
sodium 4-[[(1R)-2-[5-(2-fluoranyl-3-methoxy-phenyl)-3-[[2-fluoranyl-6-(trifluoromethyl)phenyl]methyl]-4-methyl-2,6-bis(oxidanylidene)pyrimidin-1-yl]-1-phenyl-ethyl]amino]butanoate

> <PUBCHEM_IUPAC_TRADITIONAL_NAME>
sodium 4-[[(1R)-2-[5-(2-fluoro-3-methoxy-phenyl)-3-[2-fluoro-6-(trifluoromethyl)benzyl]-2,6-diketo-4-methyl-pyrimidin-1-yl]-1-phenyl-ethyl]amino]butyrate

> <PUBCHEM_IUPAC_INCHI>
InChI=1S/C32H30F5N3O5.Na/c1-19-28(21-11-6-14-26(45-2)29(21)34)30(43)40(18-25(20-9-4-3-5-10-20)38-16-8-15-27(41)42)31(44)39(19)17-22-23(32(35,36)37)12-7-13-24(22)33;/h3-7,9-14,25,38H,8,15-18H2,1-2H3,(H,41,42);/q;+1/p-1/t25-;/m0./s1

> <PUBCHEM_IUPAC_INCHIKEY>
DQYGXRQUFSRDCH-UQIIZPHYSA-M

> <PUBCHEM_EXACT_MASS>
653.19250613

> <PUBCHEM_MOLECULAR_FORMULA>
C32H29F5N3NaO5

> <PUBCHEM_MOLECULAR_WEIGHT>
653.6

> <PUBCHEM_SMILES>
CC1=C(C(=O)N(C(=O)N1CC2=C(C=CC=C2F)C(F)(F)F)C[C@@H](C3=CC=CC=C3)NCCCC(=O)[O-])C4=C(C(=CC=C4)OC)F.[Na+]

> <PUBCHEM_CONNECTIVITY_SMILES>
CC1=C(C(=O)N(C(=O)N1CC2=C(C=CC=C2F)C(F)(F)F)CC(C3=CC=CC=C3)NCCCC(=O)[O-])C4=C(C(=CC=C4)OC)F.[Na+]

> <PUBCHEM_CACTVS_TPSA>
102

> <PUBCHEM_MONOISOTOPIC_WEIGHT>
653.19250613

> <PUBCHEM_TOTAL_CHARGE>
0

> <PUBCHEM_HEAVY_ATOM_COUNT>
46

> <PUBCHEM_ATOM_DEF_STEREO_COUNT>
1

> <PUBCHEM_ATOM_UDEF_STEREO_COUNT>
0

> <PUBCHEM_BOND_DEF_STEREO_COUNT>
0

> <PUBCHEM_BOND_UDEF_STEREO_COUNT>
0

> <PUBCHEM_ISOTOPIC_ATOM_COUNT>
0

> <PUBCHEM_COMPONENT_COUNT>
2

> <PUBCHEM_CACTVS_TAUTO_COUNT>
-1

> <PUBCHEM_NONSTANDARDBOND>
1  10  7

> <PUBCHEM_COORDINATE_TYPE>
1
5
255

> <PUBCHEM_BONDANNOTATIONS>
12  18  8
12  21  8
13  17  8
13  18  8
15  14  6
17  19  8
19  21  8
20  28  8
20  29  8
25  32  8
25  33  8
26  30  8
26  34  8
28  35  8
29  36  8
30  38  8
32  39  8
33  42  8
34  41  8
35  37  8
36  37  8
38  43  8
39  44  8
41  43  8
42  44  8

$$$$
