25141092
  -OEChem-10172515122D

 75 80  0     0  0  0  0  0  0999 V2000
    3.7321   -5.3076    0.0000 F   0  0  0  0  0  0  0  0  0  0  0  0
    2.0000   -2.3076    0.0000 F   0  0  0  0  0  0  0  0  0  0  0  0
    6.9584    2.3754    0.0000 O   0  0  0  0  0  0  0  0  0  0  0  0
   10.9654   -2.0904    0.0000 O   0  0  0  0  0  0  0  0  0  0  0  0
   11.5402    2.4560    0.0000 N   0  0  0  0  0  0  0  0  0  0  0  0
   12.1615    4.3570    0.0000 N   0  0  0  0  0  0  0  0  0  0  0  0
    8.9619    0.1425    0.0000 N   0  0  0  0  0  0  0  0  0  0  0  0
    9.3191   -1.5523    0.0000 N   0  0  0  0  0  0  0  0  0  0  0  0
    9.0084   -4.1123    0.0000 N   0  0  0  0  0  0  0  0  0  0  0  0
    9.5920   -3.3076    0.0000 N   0  0  0  0  0  0  0  0  0  0  0  0
    8.2940    0.8868    0.0000 C   0  0  0  0  0  0  0  0  0  0  0  0
    7.3155    0.6806    0.0000 C   0  0  0  0  0  0  0  0  0  0  0  0
    8.6047    1.8373    0.0000 C   0  0  0  0  0  0  0  0  0  0  0  0
   10.8724    3.2003    0.0000 C   0  0  0  0  0  0  0  0  0  0  0  0
   12.5187    2.6622    0.0000 C   0  0  0  0  0  0  0  0  0  0  0  0
   11.1830    4.1508    0.0000 C   0  0  0  0  0  0  0  0  0  0  0  0
   12.8294    3.6127    0.0000 C   0  0  0  0  0  0  0  0  0  0  0  0
   11.2296    1.5055    0.0000 C   0  0  0  0  0  0  0  0  0  0  0  0
    6.6477    1.4249    0.0000 C   0  0  0  0  0  0  0  0  0  0  0  0
    7.9369    2.5816    0.0000 C   0  0  0  0  0  0  0  0  0  0  0  0
    9.9404    0.3487    0.0000 C   0  0  0  0  0  0  0  0  0  0  0  0
   10.2510    1.2993    0.0000 C   0  0  0  0  0  0  0  0  0  0  0  0
   10.6082   -0.3956    0.0000 C   0  0  0  0  0  0  0  0  0  0  0  0
   11.8974    0.7612    0.0000 C   0  0  0  0  0  0  0  0  0  0  0  0
   12.4722    5.3076    0.0000 C   0  0  0  0  0  0  0  0  0  0  0  0
   11.5867   -0.1893    0.0000 C   0  0  0  0  0  0  0  0  0  0  0  0
   10.2976   -1.3461    0.0000 C   0  0  0  0  0  0  0  0  0  0  0  0
    9.0084   -2.5028    0.0000 C   0  0  0  0  0  0  0  0  0  0  0  0
    8.0622   -2.8076    0.0000 C   0  0  0  0  0  0  0  0  0  0  0  0
    8.0622   -3.8076    0.0000 C   0  0  0  0  0  0  0  0  0  0  0  0
    7.1962   -2.3076    0.0000 C   0  0  0  0  0  0  0  0  0  0  0  0
    6.3301   -2.8076    0.0000 C   0  0  0  0  0  0  0  0  0  0  0  0
    5.4641   -2.3076    0.0000 C   0  0  0  0  0  0  0  0  0  0  0  0
    7.1962   -4.3076    0.0000 C   0  0  0  0  0  0  0  0  0  0  0  0
    6.3301   -3.8076    0.0000 C   0  0  0  0  0  0  0  0  0  0  0  0
    4.5981   -2.8076    0.0000 C   0  0  0  0  0  0  0  0  0  0  0  0
    3.7321   -2.3076    0.0000 C   0  0  0  0  0  0  0  0  0  0  0  0
    4.5981   -3.8076    0.0000 C   0  0  0  0  0  0  0  0  0  0  0  0
    3.7321   -4.3076    0.0000 C   0  0  0  0  0  0  0  0  0  0  0  0
    2.8660   -2.8076    0.0000 C   0  0  0  0  0  0  0  0  0  0  0  0
    2.8660   -3.8076    0.0000 C   0  0  0  0  0  0  0  0  0  0  0  0
    8.1014    0.2975    0.0000 H   0  0  0  0  0  0  0  0  0  0  0  0
    6.7892    0.3530    0.0000 H   0  0  0  0  0  0  0  0  0  0  0  0
    7.5468    0.1053    0.0000 H   0  0  0  0  0  0  0  0  0  0  0  0
    9.1516    1.5453    0.0000 H   0  0  0  0  0  0  0  0  0  0  0  0
    8.9873    2.3253    0.0000 H   0  0  0  0  0  0  0  0  0  0  0  0
   10.3254    3.4923    0.0000 H   0  0  0  0  0  0  0  0  0  0  0  0
   10.4898    2.7124    0.0000 H   0  0  0  0  0  0  0  0  0  0  0  0
   12.5393    2.0426    0.0000 H   0  0  0  0  0  0  0  0  0  0  0  0
   13.1325    2.5749    0.0000 H   0  0  0  0  0  0  0  0  0  0  0  0
   11.1625    4.7705    0.0000 H   0  0  0  0  0  0  0  0  0  0  0  0
   10.5692    4.2382    0.0000 H   0  0  0  0  0  0  0  0  0  0  0  0
   13.3763    3.3207    0.0000 H   0  0  0  0  0  0  0  0  0  0  0  0
   13.2119    4.1006    0.0000 H   0  0  0  0  0  0  0  0  0  0  0  0
    8.7693   -0.4468    0.0000 H   0  0  0  0  0  0  0  0  0  0  0  0
    6.1008    1.7169    0.0000 H   0  0  0  0  0  0  0  0  0  0  0  0
    6.2651    0.9370    0.0000 H   0  0  0  0  0  0  0  0  0  0  0  0
    8.4632    2.9093    0.0000 H   0  0  0  0  0  0  0  0  0  0  0  0
    7.7056    3.1569    0.0000 H   0  0  0  0  0  0  0  0  0  0  0  0
    9.8370    1.7607    0.0000 H   0  0  0  0  0  0  0  0  0  0  0  0
   12.5041    0.8890    0.0000 H   0  0  0  0  0  0  0  0  0  0  0  0
   13.0615    5.1150    0.0000 H   0  0  0  0  0  0  0  0  0  0  0  0
   12.6648    5.8969    0.0000 H   0  0  0  0  0  0  0  0  0  0  0  0
   11.8829    5.5002    0.0000 H   0  0  0  0  0  0  0  0  0  0  0  0
   12.0008   -0.6508    0.0000 H   0  0  0  0  0  0  0  0  0  0  0  0
    8.9050   -1.0908    0.0000 H   0  0  0  0  0  0  0  0  0  0  0  0
    7.1962   -1.6876    0.0000 H   0  0  0  0  0  0  0  0  0  0  0  0
    5.8626   -1.8326    0.0000 H   0  0  0  0  0  0  0  0  0  0  0  0
    5.0656   -1.8326    0.0000 H   0  0  0  0  0  0  0  0  0  0  0  0
    9.2010   -4.7016    0.0000 H   0  0  0  0  0  0  0  0  0  0  0  0
    7.1962   -4.9276    0.0000 H   0  0  0  0  0  0  0  0  0  0  0  0
    5.7932   -4.1176    0.0000 H   0  0  0  0  0  0  0  0  0  0  0  0
    3.7321   -1.6876    0.0000 H   0  0  0  0  0  0  0  0  0  0  0  0
    5.1350   -4.1176    0.0000 H   0  0  0  0  0  0  0  0  0  0  0  0
    2.3291   -4.1176    0.0000 H   0  0  0  0  0  0  0  0  0  0  0  0
  1 39  1  0  0  0  0
  2 40  1  0  0  0  0
  3 19  1  0  0  0  0
  3 20  1  0  0  0  0
  4 27  2  0  0  0  0
  5 14  1  0  0  0  0
  5 15  1  0  0  0  0
  5 18  1  0  0  0  0
  6 16  1  0  0  0  0
  6 17  1  0  0  0  0
  6 25  1  0  0  0  0
  7 11  1  0  0  0  0
  7 21  1  0  0  0  0
  7 55  1  0  0  0  0
  8 27  1  0  0  0  0
  8 28  1  0  0  0  0
  8 66  1  0  0  0  0
  9 10  1  0  0  0  0
  9 30  1  0  0  0  0
  9 70  1  0  0  0  0
 10 28  2  0  0  0  0
 11 12  1  0  0  0  0
 11 13  1  0  0  0  0
 11 42  1  0  0  0  0
 12 19  1  0  0  0  0
 12 43  1  0  0  0  0
 12 44  1  0  0  0  0
 13 20  1  0  0  0  0
 13 45  1  0  0  0  0
 13 46  1  0  0  0  0
 14 16  1  0  0  0  0
 14 47  1  0  0  0  0
 14 48  1  0  0  0  0
 15 17  1  0  0  0  0
 15 49  1  0  0  0  0
 15 50  1  0  0  0  0
 16 51  1  0  0  0  0
 16 52  1  0  0  0  0
 17 53  1  0  0  0  0
 17 54  1  0  0  0  0
 18 22  2  0  0  0  0
 18 24  1  0  0  0  0
 19 56  1  0  0  0  0
 19 57  1  0  0  0  0
 20 58  1  0  0  0  0
 20 59  1  0  0  0  0
 21 22  1  0  0  0  0
 21 23  2  0  0  0  0
 22 60  1  0  0  0  0
 23 26  1  0  0  0  0
 23 27  1  0  0  0  0
 24 26  2  0  0  0  0
 24 61  1  0  0  0  0
 25 62  1  0  0  0  0
 25 63  1  0  0  0  0
 25 64  1  0  0  0  0
 26 65  1  0  0  0  0
 28 29  1  0  0  0  0
 29 30  2  0  0  0  0
 29 31  1  0  0  0  0
 30 34  1  0  0  0  0
 31 32  2  0  0  0  0
 31 67  1  0  0  0  0
 32 33  1  0  0  0  0
 32 35  1  0  0  0  0
 33 36  1  0  0  0  0
 33 68  1  0  0  0  0
 33 69  1  0  0  0  0
 34 35  2  0  0  0  0
 34 71  1  0  0  0  0
 35 72  1  0  0  0  0
 36 37  2  0  0  0  0
 36 38  1  0  0  0  0
 37 40  1  0  0  0  0
 37 73  1  0  0  0  0
 38 39  2  0  0  0  0
 38 74  1  0  0  0  0
 39 41  1  0  0  0  0
 40 41  2  0  0  0  0
 41 75  1  0  0  0  0
M  END
> <PUBCHEM_COMPOUND_CID>
25141092

> <PUBCHEM_COMPOUND_CANONICALIZED>
1

> <PUBCHEM_CACTVS_COMPLEXITY>
846

> <PUBCHEM_CACTVS_HBOND_ACCEPTOR>
8

> <PUBCHEM_CACTVS_HBOND_DONOR>
3

> <PUBCHEM_CACTVS_ROTATABLE_BOND>
7

> <PUBCHEM_CACTVS_SUBSKEYS>
AAADcfB7sYAAAAAAAAAAAAAAAAAAAWAAAAA8aMECAAAAAFgB9AAAHwAYAAAADCjhng4z8PPjBACqAydycACSBAIlAgAduaE4ZNiIYLrA3dGWpYh2nQLIyceYicCeCAACAAQCAAAQAAQACAQAAAAAAAAAAA==

> <PUBCHEM_IUPAC_OPENEYE_NAME>
N-[5-[(3,5-difluorophenyl)methyl]-1H-indazol-3-yl]-4-(4-methylpiperazin-1-yl)-2-(tetrahydropyran-4-ylamino)benzamide

> <PUBCHEM_IUPAC_CAS_NAME>
N-[5-[(3,5-difluorophenyl)methyl]-1H-indazol-3-yl]-4-(4-methyl-1-piperazinyl)-2-(4-oxanylamino)benzamide

> <PUBCHEM_IUPAC_NAME_MARKUP>
<I>N</I>-[5-[(3,5-difluorophenyl)methyl]-1<I>H</I>-indazol-3-yl]-4-(4-methylpiperazin-1-yl)-2-(oxan-4-ylamino)benzamide

> <PUBCHEM_IUPAC_NAME>
N-[5-[(3,5-difluorophenyl)methyl]-1H-indazol-3-yl]-4-(4-methylpiperazin-1-yl)-2-(oxan-4-ylamino)benzamide

> <PUBCHEM_IUPAC_SYSTEMATIC_NAME>
N-[5-[[3,5-bis(fluoranyl)phenyl]methyl]-1H-indazol-3-yl]-4-(4-methylpiperazin-1-yl)-2-(oxan-4-ylamino)benzamide

> <PUBCHEM_IUPAC_TRADITIONAL_NAME>
N-[5-(3,5-difluorobenzyl)-1H-indazol-3-yl]-4-(4-methylpiperazino)-2-(tetrahydropyran-4-ylamino)benzamide

> <PUBCHEM_IUPAC_INCHI>
InChI=1S/C31H34F2N6O2/c1-38-8-10-39(11-9-38)25-3-4-26(29(19-25)34-24-6-12-41-13-7-24)31(40)35-30-27-17-20(2-5-28(27)36-37-30)14-21-15-22(32)18-23(33)16-21/h2-5,15-19,24,34H,6-14H2,1H3,(H2,35,36,37,40)

> <PUBCHEM_IUPAC_INCHIKEY>
HAYYBYPASCDWEQ-UHFFFAOYSA-N

> <PUBCHEM_XLOGP3_AA>
5.7

> <PUBCHEM_EXACT_MASS>
560.27113067

> <PUBCHEM_MOLECULAR_FORMULA>
C31H34F2N6O2

> <PUBCHEM_MOLECULAR_WEIGHT>
560.6

> <PUBCHEM_SMILES>
CN1CCN(CC1)C2=CC(=C(C=C2)C(=O)NC3=NNC4=C3C=C(C=C4)CC5=CC(=CC(=C5)F)F)NC6CCOCC6

> <PUBCHEM_CONNECTIVITY_SMILES>
CN1CCN(CC1)C2=CC(=C(C=C2)C(=O)NC3=NNC4=C3C=C(C=C4)CC5=CC(=CC(=C5)F)F)NC6CCOCC6

> <PUBCHEM_CACTVS_TPSA>
85.5

> <PUBCHEM_MONOISOTOPIC_WEIGHT>
560.27113067

> <PUBCHEM_TOTAL_CHARGE>
0

> <PUBCHEM_HEAVY_ATOM_COUNT>
41

> <PUBCHEM_ATOM_DEF_STEREO_COUNT>
0

> <PUBCHEM_ATOM_UDEF_STEREO_COUNT>
0

> <PUBCHEM_BOND_DEF_STEREO_COUNT>
0

> <PUBCHEM_BOND_UDEF_STEREO_COUNT>
0

> <PUBCHEM_ISOTOPIC_ATOM_COUNT>
0

> <PUBCHEM_COMPONENT_COUNT>
1

> <PUBCHEM_CACTVS_TAUTO_COUNT>
-1

> <PUBCHEM_COORDINATE_TYPE>
1
5
255

> <PUBCHEM_BONDANNOTATIONS>
10  28  8
18  22  8
18  24  8
21  22  8
21  23  8
23  26  8
24  26  8
28  29  8
29  30  8
29  31  8
30  34  8
31  32  8
32  35  8
34  35  8
36  37  8
36  38  8
37  40  8
38  39  8
39  41  8
40  41  8
9  10  8
9  30  8

$$$$
