146673142
  -OEChem-10172515082D

 84 79  0     0  0  0  0  0  0999 V2000
   15.8154    1.5000    0.0000 P   0  0  0  0  0  0  0  0  0  0  0  0
   16.6814    0.0000    0.0000 Na  0  3  0  0  0  0  0  0  0  0  0  0
   17.3154    2.3660    0.0000 Na  0  3  0  0  0  0  0  0  0  0  0  0
   11.4115    5.9758    0.0000 F   0  0  0  0  0  0  0  0  0  0  0  0
   14.9494    6.0000    0.0000 O   0  0  0  0  0  0  0  0  0  0  0  0
   16.6814    4.0000    0.0000 O   0  0  0  0  0  0  0  0  0  0  0  0
   15.8154    2.5000    0.0000 O   0  0  0  0  0  0  0  0  0  0  0  0
   15.8154    0.5000    0.0000 O   0  5  0  0  0  0  0  0  0  0  0  0
   16.8154    1.5000    0.0000 O   0  5  0  0  0  0  0  0  0  0  0  0
   14.8154    1.5000    0.0000 O   0  0  0  0  0  0  0  0  0  0  0  0
    6.2116    6.9558    0.0000 O   0  0  0  0  0  0  0  0  0  0  0  0
    4.4911    3.9492    0.0000 O   0  0  0  0  0  0  0  0  0  0  0  0
    4.4834    5.9491    0.0000 O   0  0  0  0  0  0  0  0  0  0  0  0
   10.2595   15.0245    0.0000 O   0  0  0  0  0  0  0  0  0  0  0  0
    0.5369    7.5122    0.0000 O   0  0  0  0  0  0  0  0  0  0  0  0
    0.5369   10.0243    0.0000 O   0  0  0  0  0  0  0  0  0  0  0  0
   10.2595   10.0003    0.0000 O   0  0  0  0  0  0  0  0  0  0  0  0
   10.2595   12.5124    0.0000 O   0  0  0  0  0  0  0  0  0  0  0  0
   10.2595   17.5366    0.0000 O   0  0  0  0  0  0  0  0  0  0  0  0
   14.9494    4.0000    0.0000 N   0  0  0  0  0  0  0  0  0  0  0  0
   13.1894    3.9653    0.0000 N   0  0  0  0  0  0  0  0  0  0  0  0
   11.4192    3.9759    0.0000 N   0  0  0  0  0  0  0  0  0  0  0  0
    9.6872    3.9692    0.0000 N   0  0  0  0  0  0  0  0  0  0  0  0
    7.9552    3.9625    0.0000 N   0  0  0  0  0  0  0  0  0  0  0  0
    8.8154    5.4658    0.0000 N   0  0  0  0  0  0  0  0  0  0  0  0
   15.8154    5.5000    0.0000 C   0  0  0  0  0  0  0  0  0  0  0  0
   15.8154    4.5000    0.0000 C   0  0  0  0  0  0  0  0  0  0  0  0
   16.8154    5.5000    0.0000 C   0  0  0  0  0  0  0  0  0  0  0  0
   16.3154    6.3660    0.0000 C   0  0  0  0  0  0  0  0  0  0  0  0
   14.0833    4.5000    0.0000 C   0  0  0  0  0  0  0  0  0  0  0  0
   14.0833    5.5000    0.0000 C   0  0  0  0  0  0  0  0  0  0  0  0
   14.9494    3.0000    0.0000 C   0  0  0  0  0  0  0  0  0  0  0  0
   13.1894    6.0347    0.0000 C   0  0  0  0  0  0  0  0  0  0  0  0
   12.2833    4.4792    0.0000 C   0  0  0  0  0  0  0  0  0  0  0  0
   12.2833    5.5208    0.0000 C   0  0  0  0  0  0  0  0  0  0  0  0
   10.5513    4.4725    0.0000 C   0  0  0  0  0  0  0  0  0  0  0  0
   10.5474    5.4725    0.0000 C   0  0  0  0  0  0  0  0  0  0  0  0
    8.8193    4.4658    0.0000 C   0  0  0  0  0  0  0  0  0  0  0  0
    9.6795    5.9692    0.0000 C   0  0  0  0  0  0  0  0  0  0  0  0
    7.0872    4.4592    0.0000 C   0  0  0  0  0  0  0  0  0  0  0  0
    6.2231    3.9558    0.0000 C   0  0  0  0  0  0  0  0  0  0  0  0
    7.0834    5.4592    0.0000 C   0  0  0  0  0  0  0  0  0  0  0  0
    6.2154    5.9558    0.0000 C   0  0  0  0  0  0  0  0  0  0  0  0
    5.3552    4.4525    0.0000 C   0  0  0  0  0  0  0  0  0  0  0  0
    5.3513    5.4525    0.0000 C   0  0  0  0  0  0  0  0  0  0  0  0
    5.3436    7.4525    0.0000 C   0  0  0  0  0  0  0  0  0  0  0  0
    4.4950    2.9492    0.0000 C   0  0  0  0  0  0  0  0  0  0  0  0
    3.6193    5.4458    0.0000 C   0  0  0  0  0  0  0  0  0  0  0  0
   16.8154    4.8800    0.0000 H   0  0  0  0  0  0  0  0  0  0  0  0
   17.4354    5.5000    0.0000 H   0  0  0  0  0  0  0  0  0  0  0  0
   16.8154    6.1200    0.0000 H   0  0  0  0  0  0  0  0  0  0  0  0
   16.8523    6.0560    0.0000 H   0  0  0  0  0  0  0  0  0  0  0  0
   16.6254    6.9030    0.0000 H   0  0  0  0  0  0  0  0  0  0  0  0
   15.7785    6.6760    0.0000 H   0  0  0  0  0  0  0  0  0  0  0  0
   14.3388    3.1077    0.0000 H   0  0  0  0  0  0  0  0  0  0  0  0
   14.7373    2.4174    0.0000 H   0  0  0  0  0  0  0  0  0  0  0  0
   13.1966    6.6546    0.0000 H   0  0  0  0  0  0  0  0  0  0  0  0
   11.7476    5.8329    0.0000 H   0  0  0  0  0  0  0  0  0  0  0  0
   11.4216    3.3559    0.0000 H   0  0  0  0  0  0  0  0  0  0  0  0
    9.6771    6.5892    0.0000 H   0  0  0  0  0  0  0  0  0  0  0  0
    7.9576    3.3425    0.0000 H   0  0  0  0  0  0  0  0  0  0  0  0
    6.2255    3.3358    0.0000 H   0  0  0  0  0  0  0  0  0  0  0  0
    7.6191    5.7712    0.0000 H   0  0  0  0  0  0  0  0  0  0  0  0
    5.6516    7.9906    0.0000 H   0  0  0  0  0  0  0  0  0  0  0  0
    4.8055    7.7604    0.0000 H   0  0  0  0  0  0  0  0  0  0  0  0
    5.0357    6.9143    0.0000 H   0  0  0  0  0  0  0  0  0  0  0  0
    3.8750    2.9468    0.0000 H   0  0  0  0  0  0  0  0  0  0  0  0
    4.4973    2.3292    0.0000 H   0  0  0  0  0  0  0  0  0  0  0  0
    5.1149    2.9515    0.0000 H   0  0  0  0  0  0  0  0  0  0  0  0
    3.3072    5.9815    0.0000 H   0  0  0  0  0  0  0  0  0  0  0  0
    3.0836    5.1337    0.0000 H   0  0  0  0  0  0  0  0  0  0  0  0
    3.9314    4.9101    0.0000 H   0  0  0  0  0  0  0  0  0  0  0  0
   10.7964   15.3345    0.0000 H   0  0  0  0  0  0  0  0  0  0  0  0
    9.7225   15.3345    0.0000 H   0  0  0  0  0  0  0  0  0  0  0  0
    1.0739    7.8222    0.0000 H   0  0  0  0  0  0  0  0  0  0  0  0
    0.0000    7.8222    0.0000 H   0  0  0  0  0  0  0  0  0  0  0  0
    1.0739   10.3343    0.0000 H   0  0  0  0  0  0  0  0  0  0  0  0
    0.0000   10.3343    0.0000 H   0  0  0  0  0  0  0  0  0  0  0  0
   10.7964   10.3103    0.0000 H   0  0  0  0  0  0  0  0  0  0  0  0
    9.7225   10.3103    0.0000 H   0  0  0  0  0  0  0  0  0  0  0  0
   10.7964   12.8224    0.0000 H   0  0  0  0  0  0  0  0  0  0  0  0
    9.7225   12.8224    0.0000 H   0  0  0  0  0  0  0  0  0  0  0  0
   10.7964   17.8466    0.0000 H   0  0  0  0  0  0  0  0  0  0  0  0
    9.7225   17.8466    0.0000 H   0  0  0  0  0  0  0  0  0  0  0  0
  1  7  1  0  0  0  0
  1  8  1  0  0  0  0
  1  9  1  0  0  0  0
  1 10  2  0  0  0  0
  4 37  1  0  0  0  0
  5 26  1  0  0  0  0
  5 31  1  0  0  0  0
  6 27  2  0  0  0  0
  7 32  1  0  0  0  0
 11 43  1  0  0  0  0
 11 46  1  0  0  0  0
 12 44  1  0  0  0  0
 12 47  1  0  0  0  0
 13 45  1  0  0  0  0
 13 48  1  0  0  0  0
 14 73  1  0  0  0  0
 14 74  1  0  0  0  0
 15 75  1  0  0  0  0
 15 76  1  0  0  0  0
 16 77  1  0  0  0  0
 16 78  1  0  0  0  0
 17 79  1  0  0  0  0
 17 80  1  0  0  0  0
 18 81  1  0  0  0  0
 18 82  1  0  0  0  0
 19 83  1  0  0  0  0
 19 84  1  0  0  0  0
 20 27  1  0  0  0  0
 20 30  1  0  0  0  0
 20 32  1  0  0  0  0
 21 30  1  0  0  0  0
 21 34  2  0  0  0  0
 22 34  1  0  0  0  0
 22 36  1  0  0  0  0
 22 59  1  0  0  0  0
 23 36  2  0  0  0  0
 23 38  1  0  0  0  0
 24 38  1  0  0  0  0
 24 40  1  0  0  0  0
 24 61  1  0  0  0  0
 25 38  2  0  0  0  0
 25 39  1  0  0  0  0
 26 27  1  0  0  0  0
 26 28  1  0  0  0  0
 26 29  1  0  0  0  0
 28 49  1  0  0  0  0
 28 50  1  0  0  0  0
 28 51  1  0  0  0  0
 29 52  1  0  0  0  0
 29 53  1  0  0  0  0
 29 54  1  0  0  0  0
 30 31  2  0  0  0  0
 31 33  1  0  0  0  0
 32 55  1  0  0  0  0
 32 56  1  0  0  0  0
 33 35  2  0  0  0  0
 33 57  1  0  0  0  0
 34 35  1  0  0  0  0
 35 58  1  0  0  0  0
 36 37  1  0  0  0  0
 37 39  2  0  0  0  0
 39 60  1  0  0  0  0
 40 41  2  0  0  0  0
 40 42  1  0  0  0  0
 41 44  1  0  0  0  0
 41 62  1  0  0  0  0
 42 43  2  0  0  0  0
 42 63  1  0  0  0  0
 43 45  1  0  0  0  0
 44 45  2  0  0  0  0
 46 64  1  0  0  0  0
 46 65  1  0  0  0  0
 46 66  1  0  0  0  0
 47 67  1  0  0  0  0
 47 68  1  0  0  0  0
 47 69  1  0  0  0  0
 48 70  1  0  0  0  0
 48 71  1  0  0  0  0
 48 72  1  0  0  0  0
M  CHG  4   2   1   3   1   8  -1   9  -1
M  END
> <PUBCHEM_COMPOUND_CID>
146673142

> <PUBCHEM_COMPOUND_CANONICALIZED>
1

> <PUBCHEM_CACTVS_COMPLEXITY>
916

> <PUBCHEM_CACTVS_HBOND_ACCEPTOR>
21

> <PUBCHEM_CACTVS_HBOND_DONOR>
8

> <PUBCHEM_CACTVS_ROTATABLE_BOND>
10

> <PUBCHEM_CACTVS_SUBSKEYS>
AAADcfB7vTIAAAAAAAAAAAAAAAAAAAAAAAA8WLEAAAAAAACx8AAAHwAQCCAADEzBkg4/9pfIFRCoQDd3dIaCiCkxYqAJ2CF/7JiPL+LE+d+HPCrv1x/a6CewcA8AAEAACgAAQAAAgAAUAACAAAAAAAAAAA==

> <PUBCHEM_IUPAC_OPENEYE_NAME>
disodium;[6-[[5-fluoro-2-(3,4,5-trimethoxyanilino)pyrimidin-4-yl]amino]-2,2-dimethyl-3-oxo-pyrido[3,2-b][1,4]oxazin-4-yl]methyl phosphate;hexahydrate

> <PUBCHEM_IUPAC_CAS_NAME>
disodium;[6-[[5-fluoro-2-(3,4,5-trimethoxyanilino)-4-pyrimidinyl]amino]-2,2-dimethyl-3-oxo-4-pyrido[3,2-b][1,4]oxazinyl]methyl phosphate;hexahydrate

> <PUBCHEM_IUPAC_NAME_MARKUP>
disodium;[6-[[5-fluoro-2-(3,4,5-trimethoxyanilino)pyrimidin-4-yl]amino]-2,2-dimethyl-3-oxopyrido[3,2-b][1,4]oxazin-4-yl]methyl phosphate;hexahydrate

> <PUBCHEM_IUPAC_NAME>
disodium;[6-[[5-fluoro-2-(3,4,5-trimethoxyanilino)pyrimidin-4-yl]amino]-2,2-dimethyl-3-oxopyrido[3,2-b][1,4]oxazin-4-yl]methyl phosphate;hexahydrate

> <PUBCHEM_IUPAC_SYSTEMATIC_NAME>
disodium;[6-[[5-fluoranyl-2-[(3,4,5-trimethoxyphenyl)amino]pyrimidin-4-yl]amino]-2,2-dimethyl-3-oxidanylidene-pyrido[3,2-b][1,4]oxazin-4-yl]methyl phosphate;hexahydrate

> <PUBCHEM_IUPAC_TRADITIONAL_NAME>
disodium;[6-[[5-fluoro-2-(3,4,5-trimethoxyanilino)pyrimidin-4-yl]amino]-3-keto-2,2-dimethyl-pyrido[3,2-b][1,4]oxazin-4-yl]methyl phosphate;hexahydrate

> <PUBCHEM_IUPAC_INCHI>
InChI=1S/C23H26FN6O9P.2Na.6H2O/c1-23(2)21(31)30(11-38-40(32,33)34)20-14(39-23)6-7-17(28-20)27-19-13(24)10-25-22(29-19)26-12-8-15(35-3)18(37-5)16(9-12)36-4;;;;;;;;/h6-10H,11H2,1-5H3,(H2,32,33,34)(H2,25,26,27,28,29);;;6*1H2/q;2*+1;;;;;;/p-2

> <PUBCHEM_IUPAC_INCHIKEY>
ZQGJCHHKJNSPMS-UHFFFAOYSA-L

> <PUBCHEM_EXACT_MASS>
732.17556819

> <PUBCHEM_MOLECULAR_FORMULA>
C23H36FN6Na2O15P

> <PUBCHEM_MOLECULAR_WEIGHT>
732.5

> <PUBCHEM_SMILES>
CC1(C(=O)N(C2=C(O1)C=CC(=N2)NC3=NC(=NC=C3F)NC4=CC(=C(C(=C4)OC)OC)OC)COP(=O)([O-])[O-])C.O.O.O.O.O.O.[Na+].[Na+]

> <PUBCHEM_CONNECTIVITY_SMILES>
CC1(C(=O)N(C2=C(O1)C=CC(=N2)NC3=NC(=NC=C3F)NC4=CC(=C(C(=C4)OC)OC)OC)COP(=O)([O-])[O-])C.O.O.O.O.O.O.[Na+].[Na+]

> <PUBCHEM_CACTVS_TPSA>
198

> <PUBCHEM_MONOISOTOPIC_WEIGHT>
732.17556819

> <PUBCHEM_TOTAL_CHARGE>
0

> <PUBCHEM_HEAVY_ATOM_COUNT>
48

> <PUBCHEM_ATOM_DEF_STEREO_COUNT>
0

> <PUBCHEM_ATOM_UDEF_STEREO_COUNT>
0

> <PUBCHEM_BOND_DEF_STEREO_COUNT>
0

> <PUBCHEM_BOND_UDEF_STEREO_COUNT>
0

> <PUBCHEM_ISOTOPIC_ATOM_COUNT>
0

> <PUBCHEM_COMPONENT_COUNT>
9

> <PUBCHEM_CACTVS_TAUTO_COUNT>
-1

> <PUBCHEM_NONSTANDARDBOND>
2  8  7
3  9  7

> <PUBCHEM_COORDINATE_TYPE>
1
5
255

> <PUBCHEM_BONDANNOTATIONS>
21  30  8
21  34  8
23  36  8
23  38  8
25  38  8
25  39  8
30  31  8
31  33  8
33  35  8
34  35  8
36  37  8
37  39  8
40  41  8
40  42  8
41  44  8
42  43  8
43  45  8
44  45  8

$$$$
