3610
  -OEChem-10172515112D

 32 32  0     0  0  0  0  0  0999 V2000
    2.5369   -0.5950    0.0000 O   0  0  0  0  0  0  0  0  0  0  0  0
    4.2690   -3.5950    0.0000 O   0  0  0  0  0  0  0  0  0  0  0  0
    5.1350    1.9050    0.0000 C   0  0  0  0  0  0  0  0  0  0  0  0
    5.1350    0.9050    0.0000 C   0  0  0  0  0  0  0  0  0  0  0  0
    6.0010    2.4050    0.0000 C   0  0  0  0  0  0  0  0  0  0  0  0
    4.2690    0.4050    0.0000 C   0  0  0  0  0  0  0  0  0  0  0  0
    6.0010    3.4050    0.0000 C   0  0  0  0  0  0  0  0  0  0  0  0
    4.2690   -0.5950    0.0000 C   0  0  0  0  0  0  0  0  0  0  0  0
    6.8671    3.9050    0.0000 C   0  0  0  0  0  0  0  0  0  0  0  0
    3.4030   -1.0950    0.0000 C   0  0  0  0  0  0  0  0  0  0  0  0
    5.1350   -1.0950    0.0000 C   0  0  0  0  0  0  0  0  0  0  0  0
    3.4030   -2.0950    0.0000 C   0  0  0  0  0  0  0  0  0  0  0  0
    5.1350   -2.0950    0.0000 C   0  0  0  0  0  0  0  0  0  0  0  0
    4.2690   -2.5950    0.0000 C   0  0  0  0  0  0  0  0  0  0  0  0
    4.9230    2.4876    0.0000 H   0  0  0  0  0  0  0  0  0  0  0  0
    4.5244    1.7973    0.0000 H   0  0  0  0  0  0  0  0  0  0  0  0
    5.3471    0.3224    0.0000 H   0  0  0  0  0  0  0  0  0  0  0  0
    5.7456    1.0127    0.0000 H   0  0  0  0  0  0  0  0  0  0  0  0
    6.2131    1.8224    0.0000 H   0  0  0  0  0  0  0  0  0  0  0  0
    6.6116    2.5127    0.0000 H   0  0  0  0  0  0  0  0  0  0  0  0
    4.0569    0.9876    0.0000 H   0  0  0  0  0  0  0  0  0  0  0  0
    3.6584    0.2973    0.0000 H   0  0  0  0  0  0  0  0  0  0  0  0
    5.7890    3.9876    0.0000 H   0  0  0  0  0  0  0  0  0  0  0  0
    5.3905    3.2973    0.0000 H   0  0  0  0  0  0  0  0  0  0  0  0
    7.1771    3.3681    0.0000 H   0  0  0  0  0  0  0  0  0  0  0  0
    7.4040    4.2150    0.0000 H   0  0  0  0  0  0  0  0  0  0  0  0
    6.5571    4.4419    0.0000 H   0  0  0  0  0  0  0  0  0  0  0  0
    5.6720   -0.7850    0.0000 H   0  0  0  0  0  0  0  0  0  0  0  0
    2.8660   -2.4050    0.0000 H   0  0  0  0  0  0  0  0  0  0  0  0
    5.6720   -2.4050    0.0000 H   0  0  0  0  0  0  0  0  0  0  0  0
    2.0000   -0.9050    0.0000 H   0  0  0  0  0  0  0  0  0  0  0  0
    4.8059   -3.9050    0.0000 H   0  0  0  0  0  0  0  0  0  0  0  0
  1 10  1  0  0  0  0
  1 31  1  0  0  0  0
  2 14  1  0  0  0  0
  2 32  1  0  0  0  0
  3  4  1  0  0  0  0
  3  5  1  0  0  0  0
  3 15  1  0  0  0  0
  3 16  1  0  0  0  0
  4  6  1  0  0  0  0
  4 17  1  0  0  0  0
  4 18  1  0  0  0  0
  5  7  1  0  0  0  0
  5 19  1  0  0  0  0
  5 20  1  0  0  0  0
  6  8  1  0  0  0  0
  6 21  1  0  0  0  0
  6 22  1  0  0  0  0
  7  9  1  0  0  0  0
  7 23  1  0  0  0  0
  7 24  1  0  0  0  0
  8 10  2  0  0  0  0
  8 11  1  0  0  0  0
  9 25  1  0  0  0  0
  9 26  1  0  0  0  0
  9 27  1  0  0  0  0
 10 12  1  0  0  0  0
 11 13  2  0  0  0  0
 11 28  1  0  0  0  0
 12 14  2  0  0  0  0
 12 29  1  0  0  0  0
 13 14  1  0  0  0  0
 13 30  1  0  0  0  0
M  END
> <PUBCHEM_COMPOUND_CID>
3610

> <PUBCHEM_COMPOUND_CANONICALIZED>
1

> <PUBCHEM_CACTVS_COMPLEXITY>
147

> <PUBCHEM_CACTVS_HBOND_ACCEPTOR>
2

> <PUBCHEM_CACTVS_HBOND_DONOR>
2

> <PUBCHEM_CACTVS_ROTATABLE_BOND>
5

> <PUBCHEM_CACTVS_SUBSKEYS>
AAADceBwMAAAAAAAAAAAAAAAAAAAAAAAAAAwAAAAAAAAAAABAAAAGgAACAAADASAmAAyBoAAAgCAAiBCAAACAAAgIAAIiAAGCIgIJyKCERKAcAAlwBUImAeA4OQOIAAACAAIAABAAAAQABAAAAAAAAAAAA==

> <PUBCHEM_IUPAC_OPENEYE_NAME>
4-hexylbenzene-1,3-diol

> <PUBCHEM_IUPAC_CAS_NAME>
4-hexylbenzene-1,3-diol

> <PUBCHEM_IUPAC_NAME_MARKUP>
4-hexylbenzene-1,3-diol

> <PUBCHEM_IUPAC_NAME>
4-hexylbenzene-1,3-diol

> <PUBCHEM_IUPAC_SYSTEMATIC_NAME>
4-hexylbenzene-1,3-diol

> <PUBCHEM_IUPAC_TRADITIONAL_NAME>
4-hexylresorcinol

> <PUBCHEM_IUPAC_INCHI>
InChI=1S/C12H18O2/c1-2-3-4-5-6-10-7-8-11(13)9-12(10)14/h7-9,13-14H,2-6H2,1H3

> <PUBCHEM_IUPAC_INCHIKEY>
WFJIVOKAWHGMBH-UHFFFAOYSA-N

> <PUBCHEM_XLOGP3>
3.5

> <PUBCHEM_EXACT_MASS>
194.130679813

> <PUBCHEM_MOLECULAR_FORMULA>
C12H18O2

> <PUBCHEM_MOLECULAR_WEIGHT>
194.27

> <PUBCHEM_SMILES>
CCCCCCC1=C(C=C(C=C1)O)O

> <PUBCHEM_CONNECTIVITY_SMILES>
CCCCCCC1=C(C=C(C=C1)O)O

> <PUBCHEM_CACTVS_TPSA>
40.5

> <PUBCHEM_MONOISOTOPIC_WEIGHT>
194.130679813

> <PUBCHEM_TOTAL_CHARGE>
0

> <PUBCHEM_HEAVY_ATOM_COUNT>
14

> <PUBCHEM_ATOM_DEF_STEREO_COUNT>
0

> <PUBCHEM_ATOM_UDEF_STEREO_COUNT>
0

> <PUBCHEM_BOND_DEF_STEREO_COUNT>
0

> <PUBCHEM_BOND_UDEF_STEREO_COUNT>
0

> <PUBCHEM_ISOTOPIC_ATOM_COUNT>
0

> <PUBCHEM_COMPONENT_COUNT>
1

> <PUBCHEM_CACTVS_TAUTO_COUNT>
-1

> <PUBCHEM_COORDINATE_TYPE>
1
5
255

> <PUBCHEM_BONDANNOTATIONS>
10  12  8
11  13  8
12  14  8
13  14  8
8  10  8
8  11  8

$$$$
