11595577
  -OEChem-10172515072D

 46 47  0     0  0  0  0  0  0999 V2000
    1.8129    2.6200    0.0000 O   0  0  0  0  0  0  0  0  0  0  0  0
    5.2770    0.6200    0.0000 O   0  0  0  0  0  0  0  0  0  0  0  0
    2.6789    1.1200    0.0000 O   0  0  0  0  0  0  0  0  0  0  0  0
    3.5449    0.6200    0.0000 O   0  0  0  0  0  0  0  0  0  0  0  0
    2.4185    8.3684    0.0000 N   0  0  0  0  0  0  0  0  0  0  0  0
    2.4185    6.7589    0.0000 N   0  0  0  0  0  0  0  0  0  0  0  0
    5.0968    7.0637    0.0000 N   0  0  0  0  0  0  0  0  0  0  0  0
    4.2307    5.5637    0.0000 N   0  0  0  0  0  0  0  0  0  0  0  0
    2.1078    9.3189    0.0000 C   0  0  0  0  0  0  0  0  0  0  0  0
    1.1293    9.5251    0.0000 C   0  0  0  0  0  0  0  0  0  0  0  0
    3.3647    8.0637    0.0000 C   0  0  0  0  0  0  0  0  0  0  0  0
    3.3647    7.0637    0.0000 C   0  0  0  0  0  0  0  0  0  0  0  0
    4.2307    8.5637    0.0000 C   0  0  0  0  0  0  0  0  0  0  0  0
    0.8186   10.4757    0.0000 C   0  0  0  0  0  0  0  0  0  0  0  0
    0.4615    8.7808    0.0000 C   0  0  0  0  0  0  0  0  0  0  0  0
    1.8349    7.5637    0.0000 C   0  0  0  0  0  0  0  0  0  0  0  0
    5.0968    8.0637    0.0000 C   0  0  0  0  0  0  0  0  0  0  0  0
    4.2307    6.5637    0.0000 C   0  0  0  0  0  0  0  0  0  0  0  0
    4.2147    9.6052    0.0000 C   0  0  0  0  0  0  0  0  0  0  0  0
    6.0068    8.5705    0.0000 C   0  0  0  0  0  0  0  0  0  0  0  0
    5.1127   10.1329    0.0000 C   0  0  0  0  0  0  0  0  0  0  0  0
    6.0148    9.6121    0.0000 C   0  0  0  0  0  0  0  0  0  0  0  0
    3.5449    2.6200    0.0000 C   0  0  0  0  0  0  0  0  0  0  0  0
    4.4110    2.1200    0.0000 C   0  0  0  0  0  0  0  0  0  0  0  0
    2.6789    2.1200    0.0000 C   0  0  0  0  0  0  0  0  0  0  0  0
    4.4110    1.1200    0.0000 C   0  0  0  0  0  0  0  0  0  0  0  0
    2.7216    9.4063    0.0000 H   0  0  0  0  0  0  0  0  0  0  0  0
    2.1284    9.9386    0.0000 H   0  0  0  0  0  0  0  0  0  0  0  0
    1.5434    9.9866    0.0000 H   0  0  0  0  0  0  0  0  0  0  0  0
    1.4080   10.6683    0.0000 H   0  0  0  0  0  0  0  0  0  0  0  0
    0.6260   11.0650    0.0000 H   0  0  0  0  0  0  0  0  0  0  0  0
    0.2293   10.2830    0.0000 H   0  0  0  0  0  0  0  0  0  0  0  0
    0.0000    9.1949    0.0000 H   0  0  0  0  0  0  0  0  0  0  0  0
    0.0474    8.3194    0.0000 H   0  0  0  0  0  0  0  0  0  0  0  0
    0.9229    8.3668    0.0000 H   0  0  0  0  0  0  0  0  0  0  0  0
    1.2149    7.5637    0.0000 H   0  0  0  0  0  0  0  0  0  0  0  0
    3.6742    9.9089    0.0000 H   0  0  0  0  0  0  0  0  0  0  0  0
    6.5401    8.2543    0.0000 H   0  0  0  0  0  0  0  0  0  0  0  0
    5.1103   10.7529    0.0000 H   0  0  0  0  0  0  0  0  0  0  0  0
    6.5529    9.9200    0.0000 H   0  0  0  0  0  0  0  0  0  0  0  0
    4.7677    5.2537    0.0000 H   0  0  0  0  0  0  0  0  0  0  0  0
    3.6938    5.2537    0.0000 H   0  0  0  0  0  0  0  0  0  0  0  0
    3.5449    3.2400    0.0000 H   0  0  0  0  0  0  0  0  0  0  0  0
    4.9479    2.4300    0.0000 H   0  0  0  0  0  0  0  0  0  0  0  0
    1.2759    2.3100    0.0000 H   0  0  0  0  0  0  0  0  0  0  0  0
    5.2770    0.0000    0.0000 H   0  0  0  0  0  0  0  0  0  0  0  0
  1 25  1  0  0  0  0
  1 45  1  0  0  0  0
  2 26  1  0  0  0  0
  2 46  1  0  0  0  0
  3 25  2  0  0  0  0
  4 26  2  0  0  0  0
  5  9  1  0  0  0  0
  5 11  1  0  0  0  0
  5 16  1  0  0  0  0
  6 12  1  0  0  0  0
  6 16  2  0  0  0  0
  7 17  1  0  0  0  0
  7 18  2  0  0  0  0
  8 18  1  0  0  0  0
  8 41  1  0  0  0  0
  8 42  1  0  0  0  0
  9 10  1  0  0  0  0
  9 27  1  0  0  0  0
  9 28  1  0  0  0  0
 10 14  1  0  0  0  0
 10 15  1  0  0  0  0
 10 29  1  0  0  0  0
 11 12  2  0  0  0  0
 11 13  1  0  0  0  0
 12 18  1  0  0  0  0
 13 17  1  0  0  0  0
 13 19  2  0  0  0  0
 14 30  1  0  0  0  0
 14 31  1  0  0  0  0
 14 32  1  0  0  0  0
 15 33  1  0  0  0  0
 15 34  1  0  0  0  0
 15 35  1  0  0  0  0
 16 36  1  0  0  0  0
 17 20  2  0  0  0  0
 19 21  1  0  0  0  0
 19 37  1  0  0  0  0
 20 22  1  0  0  0  0
 20 38  1  0  0  0  0
 21 22  2  0  0  0  0
 21 39  1  0  0  0  0
 22 40  1  0  0  0  0
 23 24  2  0  0  0  0
 23 25  1  0  0  0  0
 23 43  1  0  0  0  0
 24 26  1  0  0  0  0
 24 44  1  0  0  0  0
M  END
> <PUBCHEM_COMPOUND_CID>
11595577

> <PUBCHEM_COMPOUND_CANONICALIZED>
1

> <PUBCHEM_CACTVS_COMPLEXITY>
412

> <PUBCHEM_CACTVS_HBOND_ACCEPTOR>
7

> <PUBCHEM_CACTVS_HBOND_DONOR>
3

> <PUBCHEM_CACTVS_ROTATABLE_BOND>
4

> <PUBCHEM_CACTVS_SUBSKEYS>
AAADceB7uAAAAAAAAAAAAAAAAAAAAWAAAAA8QAAAAAAAAFix/gAAHgAQCAAADQjBngQ3+PdMEgCoAybzbACCgC0xEqAJ2CA4dNiIbOLA2dGUNAhogALI2acQgIAOAAAAAAACAAAAAAAAAAQAAAAAAAAAAA==

> <PUBCHEM_IUPAC_OPENEYE_NAME>
1-isobutylimidazo[4,5-c]quinolin-4-amine;maleic acid

> <PUBCHEM_IUPAC_CAS_NAME>
(Z)-2-butenedioic acid;1-(2-methylpropyl)-4-imidazo[4,5-c]quinolinamine

> <PUBCHEM_IUPAC_NAME_MARKUP>
(<I>Z</I>)-but-2-enedioic acid;1-(2-methylpropyl)imidazo[4,5-c]quinolin-4-amine

> <PUBCHEM_IUPAC_NAME>
(Z)-but-2-enedioic acid;1-(2-methylpropyl)imidazo[4,5-c]quinolin-4-amine

> <PUBCHEM_IUPAC_SYSTEMATIC_NAME>
(Z)-but-2-enedioic acid;1-(2-methylpropyl)imidazo[4,5-c]quinolin-4-amine

> <PUBCHEM_IUPAC_TRADITIONAL_NAME>
(1-isobutylimidazo[4,5-c]quinolin-4-yl)amine;maleic acid

> <PUBCHEM_IUPAC_INCHI>
InChI=1S/C14H16N4.C4H4O4/c1-9(2)7-18-8-16-12-13(18)10-5-3-4-6-11(10)17-14(12)15;5-3(6)1-2-4(7)8/h3-6,8-9H,7H2,1-2H3,(H2,15,17);1-2H,(H,5,6)(H,7,8)/b;2-1-

> <PUBCHEM_IUPAC_INCHIKEY>
KYQFLNAOJRNEDV-BTJKTKAUSA-N

> <PUBCHEM_EXACT_MASS>
356.14845513

> <PUBCHEM_MOLECULAR_FORMULA>
C18H20N4O4

> <PUBCHEM_MOLECULAR_WEIGHT>
356.4

> <PUBCHEM_SMILES>
CC(C)CN1C=NC2=C1C3=CC=CC=C3N=C2N.C(=C\C(=O)O)\C(=O)O

> <PUBCHEM_CONNECTIVITY_SMILES>
CC(C)CN1C=NC2=C1C3=CC=CC=C3N=C2N.C(=CC(=O)O)C(=O)O

> <PUBCHEM_CACTVS_TPSA>
131

> <PUBCHEM_MONOISOTOPIC_WEIGHT>
356.14845513

> <PUBCHEM_TOTAL_CHARGE>
0

> <PUBCHEM_HEAVY_ATOM_COUNT>
26

> <PUBCHEM_ATOM_DEF_STEREO_COUNT>
0

> <PUBCHEM_ATOM_UDEF_STEREO_COUNT>
0

> <PUBCHEM_BOND_DEF_STEREO_COUNT>
1

> <PUBCHEM_BOND_UDEF_STEREO_COUNT>
0

> <PUBCHEM_ISOTOPIC_ATOM_COUNT>
0

> <PUBCHEM_COMPONENT_COUNT>
2

> <PUBCHEM_CACTVS_TAUTO_COUNT>
-1

> <PUBCHEM_COORDINATE_TYPE>
1
5
255

> <PUBCHEM_BONDANNOTATIONS>
11  12  8
11  13  8
12  18  8
13  17  8
13  19  8
17  20  8
19  21  8
20  22  8
21  22  8
5  11  8
5  16  8
6  12  8
6  16  8
7  17  8
7  18  8

$$$$
