6321424
  -OEChem-10172515102D

136142  0     1  0  0  0  0  0999 V2000
    7.6469    2.4124    0.0000 O   0  0  0  0  0  0  0  0  0  0  0  0
    8.4402    1.8037    0.0000 O   0  0  0  0  0  0  0  0  0  0  0  0
    8.0487   -1.1707    0.0000 O   0  0  0  0  0  0  0  0  0  0  0  0
    8.5336   -5.5308    0.0000 O   0  0  0  0  0  0  0  0  0  0  0  0
    7.2461   -3.8183    0.0000 O   0  0  0  0  0  0  0  0  0  0  0  0
    6.2789   -5.6129    0.0000 O   0  0  0  0  0  0  0  0  0  0  0  0
    9.1663   -1.5201    0.0000 O   0  0  0  0  0  0  0  0  0  0  0  0
   12.7407   -0.1314    0.0000 O   0  0  0  0  0  0  0  0  0  0  0  0
   14.4728   -0.1314    0.0000 O   0  0  0  0  0  0  0  0  0  0  0  0
   16.2048   -2.1314    0.0000 O   0  0  0  0  0  0  0  0  0  0  0  0
   14.4728   -3.1314    0.0000 O   0  0  0  0  0  0  0  0  0  0  0  0
   17.0709   -0.6314    0.0000 O   0  0  0  0  0  0  0  0  0  0  0  0
   19.6689   -2.1314    0.0000 O   0  0  0  0  0  0  0  0  0  0  0  0
   19.6689   -0.1314    0.0000 O   0  0  0  0  0  0  0  0  0  0  0  0
    7.5164    1.4210    0.0000 C   0  0  2  0  0  0  0  0  0  0  0  0
    6.8535    3.0212    0.0000 C   0  0  1  0  0  0  0  0  0  0  0  0
    5.9297    2.6385    0.0000 C   0  0  2  0  0  0  0  0  0  0  0  0
    6.5925    1.0383    0.0000 C   0  0  0  0  0  0  0  0  0  0  0  0
    7.3858    0.4295    0.0000 C   0  0  0  0  0  0  0  0  0  0  0  0
    5.7991    1.6471    0.0000 C   0  0  0  0  0  0  0  0  0  0  0  0
    8.1792   -0.1792    0.0000 C   0  0  2  0  0  0  0  0  0  0  0  0
    9.2336    1.1949    0.0000 C   0  0  1  0  0  0  0  0  0  0  0  0
    9.1031    0.2035    0.0000 C   0  0  0  0  0  0  0  0  0  0  0  0
    6.9841    4.0126    0.0000 C   0  0  2  0  0  0  0  0  0  0  0  0
    8.2375   -3.9488    0.0000 C   0  0  2  0  0  0  0  0  0  0  0  0
    7.8549   -3.0249    0.0000 C   0  0  2  0  0  0  0  0  0  0  0  0
    7.8119   -4.8472    0.0000 C   0  0  1  0  0  0  0  0  0  0  0  0
    5.1363    3.2473    0.0000 C   0  0  0  0  0  0  0  0  0  0  0  0
   10.1575    1.5776    0.0000 C   0  0  0  0  0  0  0  0  0  0  0  0
    6.1907    4.6214    0.0000 C   0  0  0  0  0  0  0  0  0  0  0  0
    6.8264   -4.7761    0.0000 C   0  0  1  0  0  0  0  0  0  0  0  0
    9.2290   -4.0793    0.0000 C   0  0  0  0  0  0  0  0  0  0  0  0
    7.9079    4.3953    0.0000 C   0  0  0  0  0  0  0  0  0  0  0  0
    8.4636   -2.2316    0.0000 C   0  0  0  0  0  0  0  0  0  0  0  0
    6.8671   -3.0495    0.0000 C   0  0  0  0  0  0  0  0  0  0  0  0
    6.3668   -3.9015    0.0000 C   0  0  0  0  0  0  0  0  0  0  0  0
    9.4076   -5.0572    0.0000 C   0  0  0  0  0  0  0  0  0  0  0  0
   10.9508    0.9688    0.0000 C   0  0  0  0  0  0  0  0  0  0  0  0
    6.3212    5.6129    0.0000 C   0  0  0  0  0  0  0  0  0  0  0  0
    9.8377   -3.2860    0.0000 C   0  0  0  0  0  0  0  0  0  0  0  0
   11.0813   -0.0226    0.0000 C   0  0  0  0  0  0  0  0  0  0  0  0
   11.8747   -0.6314    0.0000 C   0  0  2  0  0  0  0  0  0  0  0  0
    5.3671   -3.8779    0.0000 C   0  0  0  0  0  0  0  0  0  0  0  0
   12.0052   -1.6228    0.0000 C   0  0  2  0  0  0  0  0  0  0  0  0
   10.8292   -3.1555    0.0000 C   0  0  0  0  0  0  0  0  0  0  0  0
   13.6068   -0.6314    0.0000 C   0  0  2  0  0  0  0  0  0  0  0  0
   15.3388   -1.6314    0.0000 C   0  0  2  0  0  0  0  0  0  0  0  0
   14.4728   -2.1314    0.0000 C   0  0  2  0  0  0  0  0  0  0  0  0
   13.6068   -1.6314    0.0000 C   0  0  0  0  0  0  0  0  0  0  0  0
   11.2119   -2.2316    0.0000 C   0  0  0  0  0  0  0  0  0  0  0  0
   15.3388   -0.6314    0.0000 C   0  0  2  0  0  0  0  0  0  0  0  0
   10.2153   -0.5226    0.0000 C   0  0  0  0  0  0  0  0  0  0  0  0
   12.9291   -2.0055    0.0000 C   0  0  0  0  0  0  0  0  0  0  0  0
   17.0709   -1.6314    0.0000 C   0  0  2  0  0  0  0  0  0  0  0  0
   17.9369   -2.1314    0.0000 C   0  0  0  0  0  0  0  0  0  0  0  0
   18.8029   -1.6314    0.0000 C   0  0  1  0  0  0  0  0  0  0  0  0
   18.8029   -0.6314    0.0000 C   0  0  2  0  0  0  0  0  0  0  0  0
   16.2048   -0.1314    0.0000 C   0  0  0  0  0  0  0  0  0  0  0  0
   17.9369   -0.1314    0.0000 C   0  0  2  0  0  0  0  0  0  0  0  0
   17.9369    0.8686    0.0000 C   0  0  0  0  0  0  0  0  0  0  0  0
   15.3388   -3.6314    0.0000 C   0  0  0  0  0  0  0  0  0  0  0  0
   19.6689   -3.1314    0.0000 C   0  0  0  0  0  0  0  0  0  0  0  0
    7.6388    3.3465    0.0000 H   0  0  0  0  0  0  0  0  0  0  0  0
    6.0106    3.2532    0.0000 H   0  0  0  0  0  0  0  0  0  0  0  0
    6.9256    0.5154    0.0000 H   0  0  0  0  0  0  0  0  0  0  0  0
    6.1354    0.6194    0.0000 H   0  0  0  0  0  0  0  0  0  0  0  0
    7.0995   -0.1204    0.0000 H   0  0  0  0  0  0  0  0  0  0  0  0
    6.7945    0.6160    0.0000 H   0  0  0  0  0  0  0  0  0  0  0  0
    5.5128    1.0971    0.0000 H   0  0  0  0  0  0  0  0  0  0  0  0
    5.2078    1.8335    0.0000 H   0  0  0  0  0  0  0  0  0  0  0  0
    7.3939   -0.5045    0.0000 H   0  0  0  0  0  0  0  0  0  0  0  0
    9.3445    2.0376    0.0000 H   0  0  0  0  0  0  0  0  0  0  0  0
    9.7225    0.2305    0.0000 H   0  0  0  0  0  0  0  0  0  0  0  0
    9.2373   -0.4018    0.0000 H   0  0  0  0  0  0  0  0  0  0  0  0
    7.0650    4.6273    0.0000 H   0  0  0  0  0  0  0  0  0  0  0  0
    7.5296   -2.2396    0.0000 H   0  0  0  0  0  0  0  0  0  0  0  0
    7.4691   -5.6250    0.0000 H   0  0  0  0  0  0  0  0  0  0  0  0
    4.7589    2.7554    0.0000 H   0  0  0  0  0  0  0  0  0  0  0  0
    4.6444    3.6247    0.0000 H   0  0  0  0  0  0  0  0  0  0  0  0
    5.5137    3.7392    0.0000 H   0  0  0  0  0  0  0  0  0  0  0  0
    9.8243    2.1005    0.0000 H   0  0  0  0  0  0  0  0  0  0  0  0
   10.6146    1.9965    0.0000 H   0  0  0  0  0  0  0  0  0  0  0  0
    5.9044    4.0715    0.0000 H   0  0  0  0  0  0  0  0  0  0  0  0
    5.5994    4.8078    0.0000 H   0  0  0  0  0  0  0  0  0  0  0  0
    6.2071   -4.7465    0.0000 H   0  0  0  0  0  0  0  0  0  0  0  0
    7.6707    4.9681    0.0000 H   0  0  0  0  0  0  0  0  0  0  0  0
    8.4807    4.6326    0.0000 H   0  0  0  0  0  0  0  0  0  0  0  0
    8.1452    3.8225    0.0000 H   0  0  0  0  0  0  0  0  0  0  0  0
    6.5525   -2.5153    0.0000 H   0  0  0  0  0  0  0  0  0  0  0  0
   10.0024   -4.8824    0.0000 H   0  0  0  0  0  0  0  0  0  0  0  0
    9.6440   -5.6304    0.0000 H   0  0  0  0  0  0  0  0  0  0  0  0
   11.4878    1.2788    0.0000 H   0  0  0  0  0  0  0  0  0  0  0  0
    5.7065    5.6938    0.0000 H   0  0  0  0  0  0  0  0  0  0  0  0
    6.4022    6.2275    0.0000 H   0  0  0  0  0  0  0  0  0  0  0  0
    6.9359    5.5319    0.0000 H   0  0  0  0  0  0  0  0  0  0  0  0
    7.3803   -4.4236    0.0000 H   0  0  0  0  0  0  0  0  0  0  0  0
    9.5277   -2.7491    0.0000 H   0  0  0  0  0  0  0  0  0  0  0  0
   12.4308   -0.9056    0.0000 H   0  0  0  0  0  0  0  0  0  0  0  0
    5.3524   -4.4978    0.0000 H   0  0  0  0  0  0  0  0  0  0  0  0
    4.7472   -3.8633    0.0000 H   0  0  0  0  0  0  0  0  0  0  0  0
    5.3817   -3.2581    0.0000 H   0  0  0  0  0  0  0  0  0  0  0  0
    5.6598   -5.5782    0.0000 H   0  0  0  0  0  0  0  0  0  0  0  0
   12.0862   -2.2375    0.0000 H   0  0  0  0  0  0  0  0  0  0  0  0
   11.2066   -3.6473    0.0000 H   0  0  0  0  0  0  0  0  0  0  0  0
   13.6068   -0.0114    0.0000 H   0  0  0  0  0  0  0  0  0  0  0  0
   15.8757   -1.3214    0.0000 H   0  0  0  0  0  0  0  0  0  0  0  0
   13.9358   -2.4414    0.0000 H   0  0  0  0  0  0  0  0  0  0  0  0
   13.3947   -2.2140    0.0000 H   0  0  0  0  0  0  0  0  0  0  0  0
   12.9962   -1.5237    0.0000 H   0  0  0  0  0  0  0  0  0  0  0  0
   10.7200   -1.8542    0.0000 H   0  0  0  0  0  0  0  0  0  0  0  0
   15.3388   -0.0114    0.0000 H   0  0  0  0  0  0  0  0  0  0  0  0
   10.5253   -1.0596    0.0000 H   0  0  0  0  0  0  0  0  0  0  0  0
    9.6784   -0.8326    0.0000 H   0  0  0  0  0  0  0  0  0  0  0  0
    9.9053    0.0143    0.0000 H   0  0  0  0  0  0  0  0  0  0  0  0
   13.1664   -1.4327    0.0000 H   0  0  0  0  0  0  0  0  0  0  0  0
   13.5019   -2.2428    0.0000 H   0  0  0  0  0  0  0  0  0  0  0  0
   12.6918   -2.5783    0.0000 H   0  0  0  0  0  0  0  0  0  0  0  0
   17.0709   -2.2514    0.0000 H   0  0  0  0  0  0  0  0  0  0  0  0
   18.3354   -2.6063    0.0000 H   0  0  0  0  0  0  0  0  0  0  0  0
   17.5383   -2.6063    0.0000 H   0  0  0  0  0  0  0  0  0  0  0  0
   19.3398   -1.3214    0.0000 H   0  0  0  0  0  0  0  0  0  0  0  0
   18.8029   -0.0114    0.0000 H   0  0  0  0  0  0  0  0  0  0  0  0
   15.8948    0.4056    0.0000 H   0  0  0  0  0  0  0  0  0  0  0  0
   16.7418    0.1786    0.0000 H   0  0  0  0  0  0  0  0  0  0  0  0
   16.5148   -0.6683    0.0000 H   0  0  0  0  0  0  0  0  0  0  0  0
   17.3999    0.1786    0.0000 H   0  0  0  0  0  0  0  0  0  0  0  0
   17.3169    0.8686    0.0000 H   0  0  0  0  0  0  0  0  0  0  0  0
   17.9369    1.4886    0.0000 H   0  0  0  0  0  0  0  0  0  0  0  0
   18.5569    0.8686    0.0000 H   0  0  0  0  0  0  0  0  0  0  0  0
   15.6488   -3.0944    0.0000 H   0  0  0  0  0  0  0  0  0  0  0  0
   15.8757   -3.9414    0.0000 H   0  0  0  0  0  0  0  0  0  0  0  0
   15.0288   -4.1683    0.0000 H   0  0  0  0  0  0  0  0  0  0  0  0
   20.2059   -0.4414    0.0000 H   0  0  0  0  0  0  0  0  0  0  0  0
   20.2889   -3.1314    0.0000 H   0  0  0  0  0  0  0  0  0  0  0  0
   19.6689   -3.7514    0.0000 H   0  0  0  0  0  0  0  0  0  0  0  0
   19.0489   -3.1314    0.0000 H   0  0  0  0  0  0  0  0  0  0  0  0
 15  1  1  1  0  0  0
  1 16  1  0  0  0  0
  2 15  1  0  0  0  0
  2 22  1  0  0  0  0
  3 21  1  0  0  0  0
  3 34  1  0  0  0  0
  4 27  1  0  0  0  0
  4 37  1  0  0  0  0
 25  5  1  1  0  0  0
  5 96  1  0  0  0  0
 31  6  1  6  0  0  0
  6102  1  0  0  0  0
  7 34  2  0  0  0  0
 42  8  1  1  0  0  0
 46  8  1  6  0  0  0
  9 46  1  0  0  0  0
  9 51  1  0  0  0  0
 47 10  1  6  0  0  0
 54 10  1  6  0  0  0
 48 11  1  1  0  0  0
 11 61  1  0  0  0  0
 12 54  1  0  0  0  0
 12 59  1  0  0  0  0
 56 13  1  1  0  0  0
 13 62  1  0  0  0  0
 57 14  1  6  0  0  0
 14133  1  0  0  0  0
 15 18  1  0  0  0  0
 15 19  1  0  0  0  0
 16 17  1  0  0  0  0
 16 24  1  0  0  0  0
 16 63  1  6  0  0  0
 17 20  1  0  0  0  0
 17 28  1  6  0  0  0
 17 64  1  0  0  0  0
 18 20  1  0  0  0  0
 18 65  1  0  0  0  0
 18 66  1  0  0  0  0
 19 21  1  0  0  0  0
 19 67  1  0  0  0  0
 19 68  1  0  0  0  0
 20 69  1  0  0  0  0
 20 70  1  0  0  0  0
 21 23  1  0  0  0  0
 21 71  1  1  0  0  0
 22 23  1  0  0  0  0
 22 29  1  0  0  0  0
 22 72  1  1  0  0  0
 23 73  1  0  0  0  0
 23 74  1  0  0  0  0
 24 30  1  0  0  0  0
 24 33  1  6  0  0  0
 24 75  1  0  0  0  0
 25 26  1  0  0  0  0
 25 27  1  0  0  0  0
 25 32  1  0  0  0  0
 26 34  1  0  0  0  0
 26 35  1  0  0  0  0
 26 76  1  6  0  0  0
 27 31  1  0  0  0  0
 27 77  1  1  0  0  0
 28 78  1  0  0  0  0
 28 79  1  0  0  0  0
 28 80  1  0  0  0  0
 29 38  1  0  0  0  0
 29 81  1  0  0  0  0
 29 82  1  0  0  0  0
 30 39  1  0  0  0  0
 30 83  1  0  0  0  0
 30 84  1  0  0  0  0
 31 36  1  0  0  0  0
 31 85  1  0  0  0  0
 32 37  1  0  0  0  0
 32 40  2  0  0  0  0
 33 86  1  0  0  0  0
 33 87  1  0  0  0  0
 33 88  1  0  0  0  0
 35 36  2  0  0  0  0
 35 89  1  0  0  0  0
 36 43  1  0  0  0  0
 37 90  1  0  0  0  0
 37 91  1  0  0  0  0
 38 41  2  0  0  0  0
 38 92  1  0  0  0  0
 39 93  1  0  0  0  0
 39 94  1  0  0  0  0
 39 95  1  0  0  0  0
 40 45  1  0  0  0  0
 40 97  1  0  0  0  0
 41 42  1  0  0  0  0
 41 52  1  0  0  0  0
 42 44  1  0  0  0  0
 42 98  1  0  0  0  0
 43 99  1  0  0  0  0
 43100  1  0  0  0  0
 43101  1  0  0  0  0
 44 50  1  0  0  0  0
 44 53  1  1  0  0  0
 44103  1  0  0  0  0
 45 50  2  0  0  0  0
 45104  1  0  0  0  0
 46 49  1  0  0  0  0
 46105  1  0  0  0  0
 47 48  1  0  0  0  0
 47 51  1  0  0  0  0
 47106  1  0  0  0  0
 48 49  1  0  0  0  0
 48107  1  0  0  0  0
 49108  1  0  0  0  0
 49109  1  0  0  0  0
 50110  1  0  0  0  0
 51 58  1  1  0  0  0
 51111  1  0  0  0  0
 52112  1  0  0  0  0
 52113  1  0  0  0  0
 52114  1  0  0  0  0
 53115  1  0  0  0  0
 53116  1  0  0  0  0
 53117  1  0  0  0  0
 54 55  1  0  0  0  0
 54118  1  0  0  0  0
 55 56  1  0  0  0  0
 55119  1  0  0  0  0
 55120  1  0  0  0  0
 56 57  1  0  0  0  0
 56121  1  0  0  0  0
 57 59  1  0  0  0  0
 57122  1  0  0  0  0
 58123  1  0  0  0  0
 58124  1  0  0  0  0
 58125  1  0  0  0  0
 59 60  1  1  0  0  0
 59126  1  0  0  0  0
 60127  1  0  0  0  0
 60128  1  0  0  0  0
 60129  1  0  0  0  0
 61130  1  0  0  0  0
 61131  1  0  0  0  0
 61132  1  0  0  0  0
 62134  1  0  0  0  0
 62135  1  0  0  0  0
 62136  1  0  0  0  0
M  END
> <PUBCHEM_COMPOUND_CID>
6321424

> <PUBCHEM_COMPOUND_CANONICALIZED>
1

> <PUBCHEM_CACTVS_COMPLEXITY>
1680

> <PUBCHEM_CACTVS_HBOND_ACCEPTOR>
14

> <PUBCHEM_CACTVS_HBOND_DONOR>
3

> <PUBCHEM_CACTVS_ROTATABLE_BOND>
8

> <PUBCHEM_CACTVS_SUBSKEYS>
AAADcfB8PAAAAAAAAAAAAAAAAAAAASAAAAAkSJEiAAAAAEAAAAAAGgAACAAADVSwgAMCCAAABgCIAiDSCAAAAAAgAAAICAEAAAgZFBYAIQAiUAAF4AAPsAPK7OzOgAAAAAAAAAAAAAAAAAAAAAAAAAAAAA==

> <PUBCHEM_IUPAC_OPENEYE_NAME>
(1R,4S,5'S,6R,6'R,8R,10E,12S,13S,14E,16E,20R,21R,24S)-21,24-dihydroxy-12-[(2R,4S,5S,6S)-5-[(2S,4S,5S,6S)-5-hydroxy-4-methoxy-6-methyl-tetrahydropyran-2-yl]oxy-4-methoxy-6-methyl-tetrahydropyran-2-yl]oxy-5',11,13,22-tetramethyl-6'-[(1S)-1-methylpropyl]spiro[3,7,19-trioxatetracyclo[15.6.1.14,8.020,24]pentacosa-10,14,16,22-tetraene-6,2'-tetrahydropyran]-2-one

> <PUBCHEM_IUPAC_CAS_NAME>
(1R,4S,5'S,6R,6'R,8R,10E,12S,13S,14E,16E,20R,21R,24S)-6'-[(2S)-butan-2-yl]-21,24-dihydroxy-12-[[(2R,4S,5S,6S)-5-[[(2S,4S,5S,6S)-5-hydroxy-4-methoxy-6-methyl-2-oxanyl]oxy]-4-methoxy-6-methyl-2-oxanyl]oxy]-5',11,13,22-tetramethyl-2-spiro[3,7,19-trioxatetracyclo[15.6.1.14,8.020,24]pentacosa-10,14,16,22-tetraene-6,2'-oxane]one

> <PUBCHEM_IUPAC_NAME_MARKUP>
(1<I>R</I>,4<I>S</I>,5&apos;<I>S</I>,6<I>R</I>,6&apos;<I>R</I>,8<I>R</I>,10<I>E</I>,12<I>S</I>,13<I>S</I>,14<I>E</I>,16<I>E</I>,20<I>R</I>,21<I>R</I>,24<I>S</I>)-6&apos;-[(2<I>S</I>)-butan-2-yl]-21,24-dihydroxy-12-[(2<I>R</I>,4<I>S</I>,5<I>S</I>,6<I>S</I>)-5-[(2<I>S</I>,4<I>S</I>,5<I>S</I>,6<I>S</I>)-5-hydroxy-4-methoxy-6-methyloxan-2-yl]oxy-4-methoxy-6-methyloxan-2-yl]oxy-5&apos;,11,13,22-tetramethylspiro[3,7,19-trioxatetracyclo[15.6.1.1<SUP>4,8</SUP>.0<SUP>20,24</SUP>]pentacosa-10,14,16,22-tetraene-6,2&apos;-oxane]-2-one

> <PUBCHEM_IUPAC_NAME>
(1R,4S,5'S,6R,6'R,8R,10E,12S,13S,14E,16E,20R,21R,24S)-6'-[(2S)-butan-2-yl]-21,24-dihydroxy-12-[(2R,4S,5S,6S)-5-[(2S,4S,5S,6S)-5-hydroxy-4-methoxy-6-methyloxan-2-yl]oxy-4-methoxy-6-methyloxan-2-yl]oxy-5',11,13,22-tetramethylspiro[3,7,19-trioxatetracyclo[15.6.1.14,8.020,24]pentacosa-10,14,16,22-tetraene-6,2'-oxane]-2-one

> <PUBCHEM_IUPAC_SYSTEMATIC_NAME>
(1R,4S,5'S,6R,6'R,8R,10E,12S,13S,14E,16E,20R,21R,24S)-6'-[(2S)-butan-2-yl]-12-[(2R,4S,5S,6S)-4-methoxy-5-[(2S,4S,5S,6S)-4-methoxy-6-methyl-5-oxidanyl-oxan-2-yl]oxy-6-methyl-oxan-2-yl]oxy-5',11,13,22-tetramethyl-21,24-bis(oxidanyl)spiro[3,7,19-trioxatetracyclo[15.6.1.14,8.020,24]pentacosa-10,14,16,22-tetraene-6,2'-oxane]-2-one

> <PUBCHEM_IUPAC_TRADITIONAL_NAME>
(1R,4S,5'S,6R,6'R,8R,10E,12S,13S,14E,16E,20R,21R,24S)-21,24-dihydroxy-12-[(2R,4S,5S,6S)-5-[(2S,4S,5S,6S)-5-hydroxy-4-methoxy-6-methyl-tetrahydropyran-2-yl]oxy-4-methoxy-6-methyl-tetrahydropyran-2-yl]oxy-5',11,13,22-tetramethyl-6'-[(1S)-1-methylpropyl]spiro[3,7,19-trioxatetracyclo[15.6.1.14,8.020,24]pentacosa-10,14,16,22-tetraene-6,2'-tetrahydropyran]-2-one

> <PUBCHEM_IUPAC_INCHI>
InChI=1S/C48H74O14/c1-11-25(2)43-28(5)17-18-47(62-43)23-34-20-33(61-47)16-15-27(4)42(26(3)13-12-14-32-24-55-45-40(49)29(6)19-35(46(51)58-34)48(32,45)52)59-39-22-37(54-10)44(31(8)57-39)60-38-21-36(53-9)41(50)30(7)56-38/h12-15,19,25-26,28,30-31,33-45,49-50,52H,11,16-18,20-24H2,1-10H3/b13-12+,27-15+,32-14+/t25-,26-,28-,30-,31-,33+,34-,35-,36-,37-,38-,39-,40+,41-,42-,43+,44-,45+,47+,48+/m0/s1

> <PUBCHEM_IUPAC_INCHIKEY>
AZSNMRSAGSSBNP-XPNPUAGNSA-N

> <PUBCHEM_XLOGP3_AA>
4.1

> <PUBCHEM_EXACT_MASS>
874.50785703

> <PUBCHEM_MOLECULAR_FORMULA>
C48H74O14

> <PUBCHEM_MOLECULAR_WEIGHT>
875.1

> <PUBCHEM_SMILES>
CC[C@H](C)[C@@H]1[C@H](CC[C@@]2(O1)C[C@@H]3C[C@H](O2)C/C=C(/[C@H]([C@H](/C=C/C=C/4\CO[C@H]5[C@@]4([C@@H](C=C([C@H]5O)C)C(=O)O3)O)C)O[C@H]6C[C@@H]([C@H]([C@@H](O6)C)O[C@H]7C[C@@H]([C@H]([C@@H](O7)C)O)OC)OC)\C)C

> <PUBCHEM_CONNECTIVITY_SMILES>
CCC(C)C1C(CCC2(O1)CC3CC(O2)CC=C(C(C(C=CC=C4COC5C4(C(C=C(C5O)C)C(=O)O3)O)C)OC6CC(C(C(O6)C)OC7CC(C(C(O7)C)O)OC)OC)C)C

> <PUBCHEM_CACTVS_TPSA>
170

> <PUBCHEM_MONOISOTOPIC_WEIGHT>
874.50785703

> <PUBCHEM_TOTAL_CHARGE>
0

> <PUBCHEM_HEAVY_ATOM_COUNT>
62

> <PUBCHEM_ATOM_DEF_STEREO_COUNT>
20

> <PUBCHEM_ATOM_UDEF_STEREO_COUNT>
0

> <PUBCHEM_BOND_DEF_STEREO_COUNT>
3

> <PUBCHEM_BOND_UDEF_STEREO_COUNT>
0

> <PUBCHEM_ISOTOPIC_ATOM_COUNT>
0

> <PUBCHEM_COMPONENT_COUNT>
1

> <PUBCHEM_CACTVS_TAUTO_COUNT>
-1

> <PUBCHEM_COORDINATE_TYPE>
1
5
255

> <PUBCHEM_BONDANNOTATIONS>
15  1  5
47  10  6
54  10  6
48  11  5
56  13  5
57  14  6
16  63  6
17  28  6
21  71  5
22  72  5
24  33  6
26  76  6
27  77  5
44  53  5
25  5  5
51  58  5
59  60  5
31  6  6
42  8  5
46  8  6

$$$$
