46188928
  -OEChem-10172515062D

 53 57  0     1  0  0  0  0  0999 V2000
    2.0000   -1.3854    0.0000 F   0  0  0  0  0  0  0  0  0  0  0  0
    4.9726   -4.0619    0.0000 F   0  0  0  0  0  0  0  0  0  0  0  0
   11.7231    3.4452    0.0000 O   0  0  0  0  0  0  0  0  0  0  0  0
   10.3170   -0.1434    0.0000 O   0  0  0  0  0  0  0  0  0  0  0  0
    4.8157   -0.3606    0.0000 N   0  0  3  0  0  0  0  0  0  0  0  0
    9.9598    1.5514    0.0000 N   0  0  0  0  0  0  0  0  0  0  0  0
    6.5477   -0.3606    0.0000 N   0  0  0  0  0  0  0  0  0  0  0  0
    7.4137   -1.8606    0.0000 N   0  0  0  0  0  0  0  0  0  0  0  0
    8.6706    0.3947    0.0000 N   0  0  0  0  0  0  0  0  0  0  0  0
    8.3600   -2.1653    0.0000 N   0  0  0  0  0  0  0  0  0  0  0  0
    3.9021   -0.7673    0.0000 C   0  0  2  0  0  0  0  0  0  0  0  0
    3.2330   -0.0242    0.0000 C   0  0  0  0  0  0  0  0  0  0  0  0
    3.7330    0.8419    0.0000 C   0  0  0  0  0  0  0  0  0  0  0  0
    4.7111    0.6339    0.0000 C   0  0  0  0  0  0  0  0  0  0  0  0
    3.6942   -1.7455    0.0000 C   0  0  0  0  0  0  0  0  0  0  0  0
    5.6817   -0.8606    0.0000 C   0  0  0  0  0  0  0  0  0  0  0  0
   10.9131    2.8588    0.0000 C   0  0  1  0  0  0  0  0  0  0  0  0
    9.9626    3.1694    0.0000 C   0  0  0  0  0  0  0  0  0  0  0  0
   10.9114    1.8588    0.0000 C   0  0  0  0  0  0  0  0  0  0  0  0
    9.3734    2.3614    0.0000 C   0  0  0  0  0  0  0  0  0  0  0  0
    2.7431   -2.0545    0.0000 C   0  0  0  0  0  0  0  0  0  0  0  0
    4.4374   -2.4146    0.0000 C   0  0  0  0  0  0  0  0  0  0  0  0
    5.6817   -1.8606    0.0000 C   0  0  0  0  0  0  0  0  0  0  0  0
    9.6491    0.6009    0.0000 C   0  0  0  0  0  0  0  0  0  0  0  0
    7.4137   -0.8606    0.0000 C   0  0  0  0  0  0  0  0  0  0  0  0
    8.3600   -0.5559    0.0000 C   0  0  0  0  0  0  0  0  0  0  0  0
    6.5477   -2.3606    0.0000 C   0  0  0  0  0  0  0  0  0  0  0  0
    4.2294   -3.3928    0.0000 C   0  0  0  0  0  0  0  0  0  0  0  0
    2.5352   -3.0326    0.0000 C   0  0  0  0  0  0  0  0  0  0  0  0
    3.2784   -3.7018    0.0000 C   0  0  0  0  0  0  0  0  0  0  0  0
    8.9436   -1.3606    0.0000 C   0  0  0  0  0  0  0  0  0  0  0  0
    3.3032   -0.9278    0.0000 H   0  0  0  0  0  0  0  0  0  0  0  0
    2.7314    0.3403    0.0000 H   0  0  0  0  0  0  0  0  0  0  0  0
    2.8181   -0.4849    0.0000 H   0  0  0  0  0  0  0  0  0  0  0  0
    3.9246    1.4315    0.0000 H   0  0  0  0  0  0  0  0  0  0  0  0
    3.1666    1.0940    0.0000 H   0  0  0  0  0  0  0  0  0  0  0  0
    5.3311    0.6339    0.0000 H   0  0  0  0  0  0  0  0  0  0  0  0
    4.7759    1.2505    0.0000 H   0  0  0  0  0  0  0  0  0  0  0  0
   10.8172    3.4713    0.0000 H   0  0  0  0  0  0  0  0  0  0  0  0
   10.2157    3.7354    0.0000 H   0  0  0  0  0  0  0  0  0  0  0  0
    9.4262    3.4804    0.0000 H   0  0  0  0  0  0  0  0  0  0  0  0
   11.0392    1.2521    0.0000 H   0  0  0  0  0  0  0  0  0  0  0  0
   11.5281    1.9225    0.0000 H   0  0  0  0  0  0  0  0  0  0  0  0
    8.9134    2.7771    0.0000 H   0  0  0  0  0  0  0  0  0  0  0  0
    8.9119    1.9474    0.0000 H   0  0  0  0  0  0  0  0  0  0  0  0
    5.0270   -2.2230    0.0000 H   0  0  0  0  0  0  0  0  0  0  0  0
    5.1448   -2.1706    0.0000 H   0  0  0  0  0  0  0  0  0  0  0  0
    6.5477   -2.9806    0.0000 H   0  0  0  0  0  0  0  0  0  0  0  0
    8.2566    0.8561    0.0000 H   0  0  0  0  0  0  0  0  0  0  0  0
   11.6594    4.0619    0.0000 H   0  0  0  0  0  0  0  0  0  0  0  0
    1.9456   -3.2242    0.0000 H   0  0  0  0  0  0  0  0  0  0  0  0
    3.1495   -4.3082    0.0000 H   0  0  0  0  0  0  0  0  0  0  0  0
    9.5636   -1.3606    0.0000 H   0  0  0  0  0  0  0  0  0  0  0  0
  1 21  1  0  0  0  0
  2 28  1  0  0  0  0
 17  3  1  6  0  0  0
  3 50  1  0  0  0  0
  4 24  2  0  0  0  0
  5 11  1  0  0  0  0
  5 14  1  0  0  0  0
  5 16  1  0  0  0  0
  6 19  1  0  0  0  0
  6 20  1  0  0  0  0
  6 24  1  0  0  0  0
  7 16  2  0  0  0  0
  7 25  1  0  0  0  0
  8 10  1  0  0  0  0
  8 25  1  0  0  0  0
  8 27  1  0  0  0  0
  9 24  1  0  0  0  0
  9 26  1  0  0  0  0
  9 49  1  0  0  0  0
 10 31  2  0  0  0  0
 11 12  1  0  0  0  0
 11 15  1  1  0  0  0
 11 32  1  0  0  0  0
 12 13  1  0  0  0  0
 12 33  1  0  0  0  0
 12 34  1  0  0  0  0
 13 14  1  0  0  0  0
 13 35  1  0  0  0  0
 13 36  1  0  0  0  0
 14 37  1  0  0  0  0
 14 38  1  0  0  0  0
 15 21  2  0  0  0  0
 15 22  1  0  0  0  0
 16 23  1  0  0  0  0
 17 18  1  0  0  0  0
 17 19  1  0  0  0  0
 17 39  1  0  0  0  0
 18 20  1  0  0  0  0
 18 40  1  0  0  0  0
 18 41  1  0  0  0  0
 19 42  1  0  0  0  0
 19 43  1  0  0  0  0
 20 44  1  0  0  0  0
 20 45  1  0  0  0  0
 21 29  1  0  0  0  0
 22 28  2  0  0  0  0
 22 46  1  0  0  0  0
 23 27  2  0  0  0  0
 23 47  1  0  0  0  0
 25 26  2  0  0  0  0
 26 31  1  0  0  0  0
 27 48  1  0  0  0  0
 28 30  1  0  0  0  0
 29 30  2  0  0  0  0
 29 51  1  0  0  0  0
 30 52  1  0  0  0  0
 31 53  1  0  0  0  0
M  END
> <PUBCHEM_COMPOUND_CID>
46188928

> <PUBCHEM_COMPOUND_CANONICALIZED>
1

> <PUBCHEM_CACTVS_COMPLEXITY>
659

> <PUBCHEM_CACTVS_HBOND_ACCEPTOR>
7

> <PUBCHEM_CACTVS_HBOND_DONOR>
2

> <PUBCHEM_CACTVS_ROTATABLE_BOND>
3

> <PUBCHEM_CACTVS_SUBSKEYS>
AAADceB7sYAAAAAAAAAAAAAAAAAAAWLFgAA8QAAAAAAAAFgB8AAAHwAYCAAADDzhmw498J/IEgCqAjZndACShCsxkqAd2CA4dJiKeOLA2VGU5AhqngLYiCcQgIAOAAAAAAAAAAAAAAAAAAAAAAAAAAAAAA==

> <PUBCHEM_IUPAC_OPENEYE_NAME>
(3S)-N-[5-[(2R)-2-(2,5-difluorophenyl)pyrrolidin-1-yl]pyrazolo[1,5-a]pyrimidin-3-yl]-3-hydroxy-pyrrolidine-1-carboxamide

> <PUBCHEM_IUPAC_CAS_NAME>
(3S)-N-[5-[(2R)-2-(2,5-difluorophenyl)-1-pyrrolidinyl]-3-pyrazolo[1,5-a]pyrimidinyl]-3-hydroxy-1-pyrrolidinecarboxamide

> <PUBCHEM_IUPAC_NAME_MARKUP>
(3<I>S</I>)-<I>N</I>-[5-[(2<I>R</I>)-2-(2,5-difluorophenyl)pyrrolidin-1-yl]pyrazolo[1,5-a]pyrimidin-3-yl]-3-hydroxypyrrolidine-1-carboxamide

> <PUBCHEM_IUPAC_NAME>
(3S)-N-[5-[(2R)-2-(2,5-difluorophenyl)pyrrolidin-1-yl]pyrazolo[1,5-a]pyrimidin-3-yl]-3-hydroxypyrrolidine-1-carboxamide

> <PUBCHEM_IUPAC_SYSTEMATIC_NAME>
(3S)-N-[5-[(2R)-2-[2,5-bis(fluoranyl)phenyl]pyrrolidin-1-yl]pyrazolo[1,5-a]pyrimidin-3-yl]-3-oxidanyl-pyrrolidine-1-carboxamide

> <PUBCHEM_IUPAC_TRADITIONAL_NAME>
(3S)-N-[5-[(2R)-2-(2,5-difluorophenyl)pyrrolidino]pyrazolo[1,5-a]pyrimidin-3-yl]-3-hydroxy-pyrrolidine-1-carboxamide

> <PUBCHEM_IUPAC_INCHI>
InChI=1S/C21H22F2N6O2/c22-13-3-4-16(23)15(10-13)18-2-1-7-28(18)19-6-9-29-20(26-19)17(11-24-29)25-21(31)27-8-5-14(30)12-27/h3-4,6,9-11,14,18,30H,1-2,5,7-8,12H2,(H,25,31)/t14-,18+/m0/s1

> <PUBCHEM_IUPAC_INCHIKEY>
NYNZQNWKBKUAII-KBXCAEBGSA-N

> <PUBCHEM_XLOGP3_AA>
1.7

> <PUBCHEM_EXACT_MASS>
428.17723029

> <PUBCHEM_MOLECULAR_FORMULA>
C21H22F2N6O2

> <PUBCHEM_MOLECULAR_WEIGHT>
428.4

> <PUBCHEM_SMILES>
C1C[C@@H](N(C1)C2=NC3=C(C=NN3C=C2)NC(=O)N4CC[C@@H](C4)O)C5=C(C=CC(=C5)F)F

> <PUBCHEM_CONNECTIVITY_SMILES>
C1CC(N(C1)C2=NC3=C(C=NN3C=C2)NC(=O)N4CCC(C4)O)C5=C(C=CC(=C5)F)F

> <PUBCHEM_CACTVS_TPSA>
86

> <PUBCHEM_MONOISOTOPIC_WEIGHT>
428.17723029

> <PUBCHEM_TOTAL_CHARGE>
0

> <PUBCHEM_HEAVY_ATOM_COUNT>
31

> <PUBCHEM_ATOM_DEF_STEREO_COUNT>
2

> <PUBCHEM_ATOM_UDEF_STEREO_COUNT>
0

> <PUBCHEM_BOND_DEF_STEREO_COUNT>
0

> <PUBCHEM_BOND_UDEF_STEREO_COUNT>
0

> <PUBCHEM_ISOTOPIC_ATOM_COUNT>
0

> <PUBCHEM_COMPONENT_COUNT>
1

> <PUBCHEM_CACTVS_TAUTO_COUNT>
-1

> <PUBCHEM_COORDINATE_TYPE>
1
5
255

> <PUBCHEM_BONDANNOTATIONS>
10  31  8
11  15  5
15  21  8
15  22  8
16  23  8
21  29  8
22  28  8
23  27  8
25  26  8
26  31  8
28  30  8
29  30  8
17  3  6
7  16  8
7  25  8
8  10  8
8  25  8
8  27  8

$$$$
