3578572
  -OEChem-10172515122D

 39 41  0     1  0  0  0  0  0999 V2000
    4.9624    3.3218    0.0000 O   0  0  0  0  0  0  0  0  0  0  0  0
    2.6487   -0.2123    0.0000 O   0  0  0  0  0  0  0  0  0  0  0  0
    2.7320    3.1397    0.0000 O   0  0  0  0  0  0  0  0  0  0  0  0
    2.0000    1.5699    0.0000 O   0  0  0  0  0  0  0  0  0  0  0  0
    4.2184   -0.9443    0.0000 N   0  0  0  0  0  0  0  0  0  0  0  0
    5.3656   -2.5826    0.0000 N   0  0  0  0  0  0  0  0  0  0  0  0
    4.0675    0.7812    0.0000 C   0  0  3  0  0  0  0  0  0  0  0  0
    5.4402    1.3732    0.0000 C   0  0  3  0  0  0  0  0  0  0  0  0
    5.6990    2.3391    0.0000 C   0  0  3  0  0  0  0  0  0  0  0  0
    3.7255    1.7209    0.0000 C   0  0  3  0  0  0  0  0  0  0  0  0
    6.8391    0.8644    0.0000 C   0  0  0  0  0  0  0  0  0  0  0  0
    7.0979    1.8303    0.0000 C   0  0  0  0  0  0  0  0  0  0  0  0
    3.6449   -0.1251    0.0000 C   0  0  0  0  0  0  0  0  0  0  0  0
    2.8192    2.1435    0.0000 C   0  0  0  0  0  0  0  0  0  0  0  0
    3.7958   -1.8506    0.0000 C   0  0  0  0  0  0  0  0  0  0  0  0
    5.2146   -0.8571    0.0000 C   0  0  0  0  0  0  0  0  0  0  0  0
    4.3694   -2.6697    0.0000 C   0  0  0  0  0  0  0  0  0  0  0  0
    5.7882   -1.6763    0.0000 C   0  0  0  0  0  0  0  0  0  0  0  0
    5.9392   -3.4017    0.0000 C   0  0  0  0  0  0  0  0  0  0  0  0
    4.4995    0.3364    0.0000 H   0  0  0  0  0  0  0  0  0  0  0  0
    5.4583    0.7535    0.0000 H   0  0  0  0  0  0  0  0  0  0  0  0
    5.6850    1.7193    0.0000 H   0  0  0  0  0  0  0  0  0  0  0  0
    3.7666    2.3395    0.0000 H   0  0  0  0  0  0  0  0  0  0  0  0
    6.6442    0.2758    0.0000 H   0  0  0  0  0  0  0  0  0  0  0  0
    7.4331    0.6866    0.0000 H   0  0  0  0  0  0  0  0  0  0  0  0
    7.6919    1.6526    0.0000 H   0  0  0  0  0  0  0  0  0  0  0  0
    7.2929    2.4189    0.0000 H   0  0  0  0  0  0  0  0  0  0  0  0
    3.2880   -1.4950    0.0000 H   0  0  0  0  0  0  0  0  0  0  0  0
    3.3574   -2.2890    0.0000 H   0  0  0  0  0  0  0  0  0  0  0  0
    5.7765   -0.5951    0.0000 H   0  0  0  0  0  0  0  0  0  0  0  0
    5.0542   -0.2582    0.0000 H   0  0  0  0  0  0  0  0  0  0  0  0
    3.8075   -2.9318    0.0000 H   0  0  0  0  0  0  0  0  0  0  0  0
    4.5299   -3.2686    0.0000 H   0  0  0  0  0  0  0  0  0  0  0  0
    6.2961   -2.0319    0.0000 H   0  0  0  0  0  0  0  0  0  0  0  0
    6.2266   -1.2379    0.0000 H   0  0  0  0  0  0  0  0  0  0  0  0
    2.1701    3.4017    0.0000 H   0  0  0  0  0  0  0  0  0  0  0  0
    5.4313   -3.7573    0.0000 H   0  0  0  0  0  0  0  0  0  0  0  0
    6.2948   -3.9096    0.0000 H   0  0  0  0  0  0  0  0  0  0  0  0
    6.4470   -3.0461    0.0000 H   0  0  0  0  0  0  0  0  0  0  0  0
  1  8  1  0  0  0  0
  1  9  1  0  0  0  0
  2 13  2  0  0  0  0
  3 14  1  0  0  0  0
  3 36  1  0  0  0  0
  4 14  2  0  0  0  0
  5 13  1  0  0  0  0
  5 15  1  0  0  0  0
  5 16  1  0  0  0  0
  6 17  1  0  0  0  0
  6 18  1  0  0  0  0
  6 19  1  0  0  0  0
  7  8  1  0  0  0  0
  7 10  1  0  0  0  0
  7 13  1  0  0  0  0
  7 20  1  0  0  0  0
  8 11  1  0  0  0  0
  8 21  1  0  0  0  0
  9 10  1  0  0  0  0
  9 12  1  0  0  0  0
  9 22  1  0  0  0  0
 10 14  1  0  0  0  0
 10 23  1  0  0  0  0
 11 12  1  0  0  0  0
 11 24  1  0  0  0  0
 11 25  1  0  0  0  0
 12 26  1  0  0  0  0
 12 27  1  0  0  0  0
 15 17  1  0  0  0  0
 15 28  1  0  0  0  0
 15 29  1  0  0  0  0
 16 18  1  0  0  0  0
 16 30  1  0  0  0  0
 16 31  1  0  0  0  0
 17 32  1  0  0  0  0
 17 33  1  0  0  0  0
 18 34  1  0  0  0  0
 18 35  1  0  0  0  0
 19 37  1  0  0  0  0
 19 38  1  0  0  0  0
 19 39  1  0  0  0  0
M  END
> <PUBCHEM_COMPOUND_CID>
3578572

> <PUBCHEM_COMPOUND_CANONICALIZED>
1

> <PUBCHEM_CACTVS_COMPLEXITY>
392

> <PUBCHEM_CACTVS_HBOND_ACCEPTOR>
5

> <PUBCHEM_CACTVS_HBOND_DONOR>
1

> <PUBCHEM_CACTVS_ROTATABLE_BOND>
2

> <PUBCHEM_CACTVS_SUBSKEYS>
AAADceBzOAAAAAAAAAAAAAAAAAAAASJAAAA8QAAAAAAAAAAAAAAAHgAACAAADRThgAYCCAMABgAIAAGQGAAAAAAAAAAAAAEIAAAAQBYAgAAWQAAHJgCAAAH/yLCOgAAAAAAAAAAAAAIAADAAAAAAAAAAAA==

> <PUBCHEM_IUPAC_OPENEYE_NAME>
3-(4-methylpiperazine-1-carbonyl)-7-oxabicyclo[2.2.1]heptane-2-carboxylic acid

> <PUBCHEM_IUPAC_CAS_NAME>
3-[(4-methyl-1-piperazinyl)-oxomethyl]-7-oxabicyclo[2.2.1]heptane-2-carboxylic acid

> <PUBCHEM_IUPAC_NAME_MARKUP>
3-(4-methylpiperazine-1-carbonyl)-7-oxabicyclo[2.2.1]heptane-2-carboxylic acid

> <PUBCHEM_IUPAC_NAME>
3-(4-methylpiperazine-1-carbonyl)-7-oxabicyclo[2.2.1]heptane-2-carboxylic acid

> <PUBCHEM_IUPAC_SYSTEMATIC_NAME>
3-(4-methylpiperazin-1-yl)carbonyl-7-oxabicyclo[2.2.1]heptane-2-carboxylic acid

> <PUBCHEM_IUPAC_TRADITIONAL_NAME>
3-(4-methylpiperazine-1-carbonyl)-7-oxabicyclo[2.2.1]heptane-2-carboxylic acid

> <PUBCHEM_IUPAC_INCHI>
InChI=1S/C13H20N2O4/c1-14-4-6-15(7-5-14)12(16)10-8-2-3-9(19-8)11(10)13(17)18/h8-11H,2-7H2,1H3,(H,17,18)

> <PUBCHEM_IUPAC_INCHIKEY>
JUQMLSGOTNKJKI-UHFFFAOYSA-N

> <PUBCHEM_XLOGP3_AA>
-3

> <PUBCHEM_EXACT_MASS>
268.14230712

> <PUBCHEM_MOLECULAR_FORMULA>
C13H20N2O4

> <PUBCHEM_MOLECULAR_WEIGHT>
268.31

> <PUBCHEM_SMILES>
CN1CCN(CC1)C(=O)C2C3CCC(C2C(=O)O)O3

> <PUBCHEM_CONNECTIVITY_SMILES>
CN1CCN(CC1)C(=O)C2C3CCC(C2C(=O)O)O3

> <PUBCHEM_CACTVS_TPSA>
70.1

> <PUBCHEM_MONOISOTOPIC_WEIGHT>
268.14230712

> <PUBCHEM_TOTAL_CHARGE>
0

> <PUBCHEM_HEAVY_ATOM_COUNT>
19

> <PUBCHEM_ATOM_DEF_STEREO_COUNT>
0

> <PUBCHEM_ATOM_UDEF_STEREO_COUNT>
4

> <PUBCHEM_BOND_DEF_STEREO_COUNT>
0

> <PUBCHEM_BOND_UDEF_STEREO_COUNT>
0

> <PUBCHEM_ISOTOPIC_ATOM_COUNT>
0

> <PUBCHEM_COMPONENT_COUNT>
1

> <PUBCHEM_CACTVS_TAUTO_COUNT>
-1

> <PUBCHEM_COORDINATE_TYPE>
1
5
255

> <PUBCHEM_BONDANNOTATIONS>
10  14  3
7  13  3
8  11  3
9  12  3

$$$$
