119369
  -OEChem-10172515092D

 61 64  0     1  0  0  0  0  0999 V2000
    8.0869    0.2822    0.0000 O   0  0  0  0  0  0  0  0  0  0  0  0
    5.3773   -3.4134    0.0000 O   0  0  0  0  0  0  0  0  0  0  0  0
    6.9088    1.5519    0.0000 N   0  0  0  0  0  0  0  0  0  0  0  0
    7.1314    4.7738    0.0000 N   0  0  0  0  0  0  0  0  0  0  0  0
    4.1992   -2.1438    0.0000 N   0  0  0  0  0  0  0  0  0  0  0  0
    6.9088    3.7989    0.0000 C   0  0  3  0  0  0  0  0  0  0  0  0
    5.9339    3.5763    0.0000 C   0  0  0  0  0  0  0  0  0  0  0  0
    5.5000    2.6754    0.0000 C   0  0  0  0  0  0  0  0  0  0  0  0
    7.6907    3.1754    0.0000 C   0  0  0  0  0  0  0  0  0  0  0  0
    5.9339    1.7744    0.0000 C   0  0  0  0  0  0  0  0  0  0  0  0
    7.6907    2.1754    0.0000 C   0  0  0  0  0  0  0  0  0  0  0  0
    8.5846    3.7100    0.0000 C   0  0  0  0  0  0  0  0  0  0  0  0
    8.5846    1.6407    0.0000 C   0  0  0  0  0  0  0  0  0  0  0  0
    6.3983    5.4540    0.0000 C   0  0  0  0  0  0  0  0  0  0  0  0
    8.0869    5.0685    0.0000 C   0  0  0  0  0  0  0  0  0  0  0  0
    7.1314    0.5769    0.0000 C   0  0  0  0  0  0  0  0  0  0  0  0
    9.4907    3.1962    0.0000 C   0  0  0  0  0  0  0  0  0  0  0  0
    9.4907    2.1545    0.0000 C   0  0  0  0  0  0  0  0  0  0  0  0
    6.3983   -0.1032    0.0000 C   0  0  0  0  0  0  0  0  0  0  0  0
    5.4427    0.1915    0.0000 C   0  0  0  0  0  0  0  0  0  0  0  0
    6.6208   -1.0782    0.0000 C   0  0  0  0  0  0  0  0  0  0  0  0
    4.7097   -0.4886    0.0000 C   0  0  0  0  0  0  0  0  0  0  0  0
    5.8878   -1.7583    0.0000 C   0  0  0  0  0  0  0  0  0  0  0  0
    4.9322   -1.4636    0.0000 C   0  0  0  0  0  0  0  0  0  0  0  0
    4.4217   -3.1187    0.0000 C   0  0  0  0  0  0  0  0  0  0  0  0
    3.6886   -3.7989    0.0000 C   0  0  0  0  0  0  0  0  0  0  0  0
    2.7331   -3.5041    0.0000 C   0  0  0  0  0  0  0  0  0  0  0  0
    3.9112   -4.7738    0.0000 C   0  0  0  0  0  0  0  0  0  0  0  0
    2.0000   -4.1843    0.0000 C   0  0  0  0  0  0  0  0  0  0  0  0
    2.5105   -2.5292    0.0000 C   0  0  0  0  0  0  0  0  0  0  0  0
    3.1781   -5.4540    0.0000 C   0  0  0  0  0  0  0  0  0  0  0  0
    2.2225   -5.1592    0.0000 C   0  0  0  0  0  0  0  0  0  0  0  0
    6.4704    4.2373    0.0000 H   0  0  0  0  0  0  0  0  0  0  0  0
    5.9339    4.1963    0.0000 H   0  0  0  0  0  0  0  0  0  0  0  0
    5.3295    3.7143    0.0000 H   0  0  0  0  0  0  0  0  0  0  0  0
    5.0153    3.0619    0.0000 H   0  0  0  0  0  0  0  0  0  0  0  0
    5.0153    2.2888    0.0000 H   0  0  0  0  0  0  0  0  0  0  0  0
    5.3295    1.6364    0.0000 H   0  0  0  0  0  0  0  0  0  0  0  0
    5.9339    1.1544    0.0000 H   0  0  0  0  0  0  0  0  0  0  0  0
    8.5775    4.3300    0.0000 H   0  0  0  0  0  0  0  0  0  0  0  0
    8.5775    1.0207    0.0000 H   0  0  0  0  0  0  0  0  0  0  0  0
    6.8200    5.9084    0.0000 H   0  0  0  0  0  0  0  0  0  0  0  0
    5.9438    5.8757    0.0000 H   0  0  0  0  0  0  0  0  0  0  0  0
    5.9766    4.9995    0.0000 H   0  0  0  0  0  0  0  0  0  0  0  0
    8.2697    4.4761    0.0000 H   0  0  0  0  0  0  0  0  0  0  0  0
    8.6794    5.2513    0.0000 H   0  0  0  0  0  0  0  0  0  0  0  0
    7.9042    5.6610    0.0000 H   0  0  0  0  0  0  0  0  0  0  0  0
   10.0264    3.5082    0.0000 H   0  0  0  0  0  0  0  0  0  0  0  0
   10.0264    1.8425    0.0000 H   0  0  0  0  0  0  0  0  0  0  0  0
    5.3048    0.7960    0.0000 H   0  0  0  0  0  0  0  0  0  0  0  0
    7.2133   -1.2609    0.0000 H   0  0  0  0  0  0  0  0  0  0  0  0
    4.1172   -0.3059    0.0000 H   0  0  0  0  0  0  0  0  0  0  0  0
    6.0257   -2.3628    0.0000 H   0  0  0  0  0  0  0  0  0  0  0  0
    3.6067   -1.9610    0.0000 H   0  0  0  0  0  0  0  0  0  0  0  0
    4.5036   -4.9565    0.0000 H   0  0  0  0  0  0  0  0  0  0  0  0
    1.4075   -4.0015    0.0000 H   0  0  0  0  0  0  0  0  0  0  0  0
    3.1150   -2.3912    0.0000 H   0  0  0  0  0  0  0  0  0  0  0  0
    2.3726   -1.9247    0.0000 H   0  0  0  0  0  0  0  0  0  0  0  0
    1.9061   -2.6671    0.0000 H   0  0  0  0  0  0  0  0  0  0  0  0
    3.3161   -6.0584    0.0000 H   0  0  0  0  0  0  0  0  0  0  0  0
    1.7680   -5.5809    0.0000 H   0  0  0  0  0  0  0  0  0  0  0  0
  1 16  2  0  0  0  0
  2 25  2  0  0  0  0
  3 10  1  0  0  0  0
  3 11  1  0  0  0  0
  3 16  1  0  0  0  0
  4  6  1  0  0  0  0
  4 14  1  0  0  0  0
  4 15  1  0  0  0  0
  5 24  1  0  0  0  0
  5 25  1  0  0  0  0
  5 54  1  0  0  0  0
  6  7  1  0  0  0  0
  6  9  1  0  0  0  0
  6 33  1  0  0  0  0
  7  8  1  0  0  0  0
  7 34  1  0  0  0  0
  7 35  1  0  0  0  0
  8 10  1  0  0  0  0
  8 36  1  0  0  0  0
  8 37  1  0  0  0  0
  9 11  1  0  0  0  0
  9 12  2  0  0  0  0
 10 38  1  0  0  0  0
 10 39  1  0  0  0  0
 11 13  2  0  0  0  0
 12 17  1  0  0  0  0
 12 40  1  0  0  0  0
 13 18  1  0  0  0  0
 13 41  1  0  0  0  0
 14 42  1  0  0  0  0
 14 43  1  0  0  0  0
 14 44  1  0  0  0  0
 15 45  1  0  0  0  0
 15 46  1  0  0  0  0
 15 47  1  0  0  0  0
 16 19  1  0  0  0  0
 17 18  2  0  0  0  0
 17 48  1  0  0  0  0
 18 49  1  0  0  0  0
 19 20  2  0  0  0  0
 19 21  1  0  0  0  0
 20 22  1  0  0  0  0
 20 50  1  0  0  0  0
 21 23  2  0  0  0  0
 21 51  1  0  0  0  0
 22 24  2  0  0  0  0
 22 52  1  0  0  0  0
 23 24  1  0  0  0  0
 23 53  1  0  0  0  0
 25 26  1  0  0  0  0
 26 27  1  0  0  0  0
 26 28  2  0  0  0  0
 27 29  2  0  0  0  0
 27 30  1  0  0  0  0
 28 31  1  0  0  0  0
 28 55  1  0  0  0  0
 29 32  1  0  0  0  0
 29 56  1  0  0  0  0
 30 57  1  0  0  0  0
 30 58  1  0  0  0  0
 30 59  1  0  0  0  0
 31 32  2  0  0  0  0
 31 60  1  0  0  0  0
 32 61  1  0  0  0  0
M  END
> <PUBCHEM_COMPOUND_CID>
119369

> <PUBCHEM_COMPOUND_CANONICALIZED>
1

> <PUBCHEM_CACTVS_COMPLEXITY>
643

> <PUBCHEM_CACTVS_HBOND_ACCEPTOR>
3

> <PUBCHEM_CACTVS_HBOND_DONOR>
1

> <PUBCHEM_CACTVS_ROTATABLE_BOND>
4

> <PUBCHEM_CACTVS_SUBSKEYS>
AAADceB7MAAAAAAAAAAAAAAAAAAAAAAAAAAwYMAABYAAAAABUAAAHgAQAAAADCjBmAQywIPAAACIAiVSUACCAAAlAgAIiAEIZMgIIDLA1ZGEIQhglgDIyYcYiYCeiAAAAAASAAAQAAAAACQAAAAAAAAAAA==

> <PUBCHEM_IUPAC_OPENEYE_NAME>
N-[4-[5-(dimethylamino)-2,3,4,5-tetrahydro-1-benzazepine-1-carbonyl]phenyl]-2-methyl-benzamide

> <PUBCHEM_IUPAC_CAS_NAME>
N-[4-[[5-(dimethylamino)-2,3,4,5-tetrahydro-1-benzazepin-1-yl]-oxomethyl]phenyl]-2-methylbenzamide

> <PUBCHEM_IUPAC_NAME_MARKUP>
<I>N</I>-[4-[5-(dimethylamino)-2,3,4,5-tetrahydro-1-benzazepine-1-carbonyl]phenyl]-2-methylbenzamide

> <PUBCHEM_IUPAC_NAME>
N-[4-[5-(dimethylamino)-2,3,4,5-tetrahydro-1-benzazepine-1-carbonyl]phenyl]-2-methylbenzamide

> <PUBCHEM_IUPAC_SYSTEMATIC_NAME>
N-[4-[[5-(dimethylamino)-2,3,4,5-tetrahydro-1-benzazepin-1-yl]carbonyl]phenyl]-2-methyl-benzamide

> <PUBCHEM_IUPAC_TRADITIONAL_NAME>
N-[4-[5-(dimethylamino)-2,3,4,5-tetrahydro-1-benzazepine-1-carbonyl]phenyl]-2-methyl-benzamide

> <PUBCHEM_IUPAC_INCHI>
InChI=1S/C27H29N3O2/c1-19-9-4-5-10-22(19)26(31)28-21-16-14-20(15-17-21)27(32)30-18-8-13-24(29(2)3)23-11-6-7-12-25(23)30/h4-7,9-12,14-17,24H,8,13,18H2,1-3H3,(H,28,31)

> <PUBCHEM_IUPAC_INCHIKEY>
WRNXUQJJCIZICJ-UHFFFAOYSA-N

> <PUBCHEM_XLOGP3_AA>
4.5

> <PUBCHEM_EXACT_MASS>
427.22597718

> <PUBCHEM_MOLECULAR_FORMULA>
C27H29N3O2

> <PUBCHEM_MOLECULAR_WEIGHT>
427.5

> <PUBCHEM_SMILES>
CC1=CC=CC=C1C(=O)NC2=CC=C(C=C2)C(=O)N3CCCC(C4=CC=CC=C43)N(C)C

> <PUBCHEM_CONNECTIVITY_SMILES>
CC1=CC=CC=C1C(=O)NC2=CC=C(C=C2)C(=O)N3CCCC(C4=CC=CC=C43)N(C)C

> <PUBCHEM_CACTVS_TPSA>
52.7

> <PUBCHEM_MONOISOTOPIC_WEIGHT>
427.22597718

> <PUBCHEM_TOTAL_CHARGE>
0

> <PUBCHEM_HEAVY_ATOM_COUNT>
32

> <PUBCHEM_ATOM_DEF_STEREO_COUNT>
0

> <PUBCHEM_ATOM_UDEF_STEREO_COUNT>
1

> <PUBCHEM_BOND_DEF_STEREO_COUNT>
0

> <PUBCHEM_BOND_UDEF_STEREO_COUNT>
0

> <PUBCHEM_ISOTOPIC_ATOM_COUNT>
0

> <PUBCHEM_COMPONENT_COUNT>
1

> <PUBCHEM_CACTVS_TAUTO_COUNT>
-1

> <PUBCHEM_COORDINATE_TYPE>
1
5
255

> <PUBCHEM_BONDANNOTATIONS>
11  13  8
12  17  8
13  18  8
17  18  8
19  20  8
19  21  8
20  22  8
21  23  8
22  24  8
23  24  8
26  27  8
26  28  8
27  29  8
28  31  8
29  32  8
31  32  8
6  4  3
9  11  8
9  12  8

$$$$
