14992
  -OEChem-10172515042D

 40 40  0     0  0  0  0  0  0999 V2000
    5.6720    3.5000    0.0000 Cl  0  0  0  0  0  0  0  0  0  0  0  0
    6.5380    8.0000    0.0000 Cl  0  0  0  0  0  0  0  0  0  0  0  0
   10.0021    6.0000    0.0000 O   0  0  0  0  0  0  0  0  0  0  0  0
    9.1361    4.5000    0.0000 O   0  0  0  0  0  0  0  0  0  0  0  0
    8.2700    0.0000    0.0000 O   0  5  0  0  0  0  0  0  0  0  0  0
    6.5380    0.0000    0.0000 O   0  0  0  0  0  0  0  0  0  0  0  0
    3.1350    3.9875    0.0000 O   0  0  0  0  0  0  0  0  0  0  0  0
    7.4040    4.5000    0.0000 N   0  0  0  0  0  0  0  0  0  0  0  0
    7.4040    0.5000    0.0000 N   0  3  0  0  0  0  0  0  0  0  0  0
    0.5369    4.4875    0.0000 N   0  0  0  0  0  0  0  0  0  0  0  0
    7.4040    3.5000    0.0000 C   0  0  0  0  0  0  0  0  0  0  0  0
    8.2700    6.0000    0.0000 C   0  0  0  0  0  0  0  0  0  0  0  0
    8.2700    5.0000    0.0000 C   0  0  0  0  0  0  0  0  0  0  0  0
    6.5380    3.0000    0.0000 C   0  0  0  0  0  0  0  0  0  0  0  0
    8.2700    3.0000    0.0000 C   0  0  0  0  0  0  0  0  0  0  0  0
    9.1361    6.5000    0.0000 C   0  0  0  0  0  0  0  0  0  0  0  0
    7.4040    1.5000    0.0000 C   0  0  0  0  0  0  0  0  0  0  0  0
    6.5380    2.0000    0.0000 C   0  0  0  0  0  0  0  0  0  0  0  0
    8.2700    2.0000    0.0000 C   0  0  0  0  0  0  0  0  0  0  0  0
    7.4040    6.5000    0.0000 C   0  0  0  0  0  0  0  0  0  0  0  0
    9.1361    7.5000    0.0000 C   0  0  0  0  0  0  0  0  0  0  0  0
    7.4040    7.5000    0.0000 C   0  0  0  0  0  0  0  0  0  0  0  0
    8.2700    8.0000    0.0000 C   0  0  0  0  0  0  0  0  0  0  0  0
    1.4030    3.9875    0.0000 C   0  0  0  0  0  0  0  0  0  0  0  0
    2.2690    4.4875    0.0000 C   0  0  0  0  0  0  0  0  0  0  0  0
    6.8671    4.8100    0.0000 H   0  0  0  0  0  0  0  0  0  0  0  0
    8.8070    3.3100    0.0000 H   0  0  0  0  0  0  0  0  0  0  0  0
    6.0010    1.6900    0.0000 H   0  0  0  0  0  0  0  0  0  0  0  0
    8.8070    1.6900    0.0000 H   0  0  0  0  0  0  0  0  0  0  0  0
    6.8671    6.1900    0.0000 H   0  0  0  0  0  0  0  0  0  0  0  0
    9.6730    7.8100    0.0000 H   0  0  0  0  0  0  0  0  0  0  0  0
    8.2700    8.6200    0.0000 H   0  0  0  0  0  0  0  0  0  0  0  0
   10.5390    6.3100    0.0000 H   0  0  0  0  0  0  0  0  0  0  0  0
    1.0044    3.5125    0.0000 H   0  0  0  0  0  0  0  0  0  0  0  0
    1.8015    3.5125    0.0000 H   0  0  0  0  0  0  0  0  0  0  0  0
    2.6675    4.9624    0.0000 H   0  0  0  0  0  0  0  0  0  0  0  0
    1.8705    4.9624    0.0000 H   0  0  0  0  0  0  0  0  0  0  0  0
    0.0000    4.1775    0.0000 H   0  0  0  0  0  0  0  0  0  0  0  0
    0.5369    5.1075    0.0000 H   0  0  0  0  0  0  0  0  0  0  0  0
    3.6720    4.2975    0.0000 H   0  0  0  0  0  0  0  0  0  0  0  0
  1 14  1  0  0  0  0
  2 22  1  0  0  0  0
  3 16  1  0  0  0  0
  3 33  1  0  0  0  0
  4 13  2  0  0  0  0
  5  9  1  0  0  0  0
  6  9  2  0  0  0  0
  7 25  1  0  0  0  0
  7 40  1  0  0  0  0
  8 11  1  0  0  0  0
  8 13  1  0  0  0  0
  8 26  1  0  0  0  0
  9 17  1  0  0  0  0
 10 24  1  0  0  0  0
 10 38  1  0  0  0  0
 10 39  1  0  0  0  0
 11 14  2  0  0  0  0
 11 15  1  0  0  0  0
 12 13  1  0  0  0  0
 12 16  2  0  0  0  0
 12 20  1  0  0  0  0
 14 18  1  0  0  0  0
 15 19  2  0  0  0  0
 15 27  1  0  0  0  0
 16 21  1  0  0  0  0
 17 18  2  0  0  0  0
 17 19  1  0  0  0  0
 18 28  1  0  0  0  0
 19 29  1  0  0  0  0
 20 22  2  0  0  0  0
 20 30  1  0  0  0  0
 21 23  2  0  0  0  0
 21 31  1  0  0  0  0
 22 23  1  0  0  0  0
 23 32  1  0  0  0  0
 24 25  1  0  0  0  0
 24 34  1  0  0  0  0
 24 35  1  0  0  0  0
 25 36  1  0  0  0  0
 25 37  1  0  0  0  0
M  CHG  2   5  -1   9   1
M  END
> <PUBCHEM_COMPOUND_CID>
14992

> <PUBCHEM_COMPOUND_CANONICALIZED>
1

> <PUBCHEM_CACTVS_COMPLEXITY>
414

> <PUBCHEM_CACTVS_HBOND_ACCEPTOR>
6

> <PUBCHEM_CACTVS_HBOND_DONOR>
4

> <PUBCHEM_CACTVS_ROTATABLE_BOND>
3

> <PUBCHEM_CACTVS_SUBSKEYS>
AAADccBzOAAGAAAAAAAAAAAAAAAAAAAAAAAwYAAAAAAAAAABQAAAHgIUCAAADA7hmCYwxoLQQgCJAiVSUwCCAAAlJwAoiIEGbsoKNjbDl5PEcUhm9BHI2YeYyCCOACCAIAIIABAAQQBABBAAIAAAAAAAAA==

> <PUBCHEM_IUPAC_OPENEYE_NAME>
2-aminoethanol;5-chloro-N-(2-chloro-4-nitro-phenyl)-2-hydroxy-benzamide

> <PUBCHEM_IUPAC_CAS_NAME>
2-aminoethanol;5-chloro-N-(2-chloro-4-nitrophenyl)-2-hydroxybenzamide

> <PUBCHEM_IUPAC_NAME_MARKUP>
2-aminoethanol;5-chloro-<I>N</I>-(2-chloro-4-nitrophenyl)-2-hydroxybenzamide

> <PUBCHEM_IUPAC_NAME>
2-aminoethanol;5-chloro-N-(2-chloro-4-nitrophenyl)-2-hydroxybenzamide

> <PUBCHEM_IUPAC_SYSTEMATIC_NAME>
2-azanylethanol;5-chloranyl-N-(2-chloranyl-4-nitro-phenyl)-2-oxidanyl-benzamide

> <PUBCHEM_IUPAC_TRADITIONAL_NAME>
2-aminoethanol;5-chloro-N-(2-chloro-4-nitro-phenyl)-2-hydroxy-benzamide

> <PUBCHEM_IUPAC_INCHI>
InChI=1S/C13H8Cl2N2O4.C2H7NO/c14-7-1-4-12(18)9(5-7)13(19)16-11-3-2-8(17(20)21)6-10(11)15;3-1-2-4/h1-6,18H,(H,16,19);4H,1-3H2

> <PUBCHEM_IUPAC_INCHIKEY>
XYCDHXSQODHSLG-UHFFFAOYSA-N

> <PUBCHEM_EXACT_MASS>
387.0388760

> <PUBCHEM_MOLECULAR_FORMULA>
C15H15Cl2N3O5

> <PUBCHEM_MOLECULAR_WEIGHT>
388.2

> <PUBCHEM_SMILES>
C1=CC(=C(C=C1[N+](=O)[O-])Cl)NC(=O)C2=C(C=CC(=C2)Cl)O.C(CO)N

> <PUBCHEM_CONNECTIVITY_SMILES>
C1=CC(=C(C=C1[N+](=O)[O-])Cl)NC(=O)C2=C(C=CC(=C2)Cl)O.C(CO)N

> <PUBCHEM_CACTVS_TPSA>
141

> <PUBCHEM_MONOISOTOPIC_WEIGHT>
387.0388760

> <PUBCHEM_TOTAL_CHARGE>
0

> <PUBCHEM_HEAVY_ATOM_COUNT>
25

> <PUBCHEM_ATOM_DEF_STEREO_COUNT>
0

> <PUBCHEM_ATOM_UDEF_STEREO_COUNT>
0

> <PUBCHEM_BOND_DEF_STEREO_COUNT>
0

> <PUBCHEM_BOND_UDEF_STEREO_COUNT>
0

> <PUBCHEM_ISOTOPIC_ATOM_COUNT>
0

> <PUBCHEM_COMPONENT_COUNT>
2

> <PUBCHEM_CACTVS_TAUTO_COUNT>
-1

> <PUBCHEM_COORDINATE_TYPE>
1
5
255

> <PUBCHEM_BONDANNOTATIONS>
11  14  8
11  15  8
12  16  8
12  20  8
14  18  8
15  19  8
16  21  8
17  18  8
17  19  8
20  22  8
21  23  8
22  23  8

$$$$
