73442
  -OEChem-10172515132D

 49 51  0     0  0  0  0  0  0999 V2000
    6.9401    5.1648    0.0000 Cl  0  5  0  0  0  0  0  0  0  0  0  0
    2.4472    1.0391    0.0000 O   0  0  0  0  0  0  0  0  0  0  0  0
    4.2505    2.0988    0.0000 O   0  0  0  0  0  0  0  0  0  0  0  0
    1.5063    8.7672    0.0000 O   0  0  0  0  0  0  0  0  0  0  0  0
    3.2722    9.8050    0.0000 O   0  0  0  0  0  0  0  0  0  0  0  0
    1.5281    5.7358    0.0000 N   0  3  0  0  0  0  0  0  0  0  0  0
    0.6180    5.2289    0.0000 C   0  0  0  0  0  0  0  0  0  0  0  0
    0.6100    4.1873    0.0000 C   0  0  0  0  0  0  0  0  0  0  0  0
    2.3941    5.2358    0.0000 C   0  0  0  0  0  0  0  0  0  0  0  0
    1.5121    3.6665    0.0000 C   0  0  0  0  0  0  0  0  0  0  0  0
    2.4101    4.1943    0.0000 C   0  0  0  0  0  0  0  0  0  0  0  0
    1.5281    6.7358    0.0000 C   0  0  0  0  0  0  0  0  0  0  0  0
    3.2601    5.7358    0.0000 C   0  0  0  0  0  0  0  0  0  0  0  0
    2.3941    7.2358    0.0000 C   0  0  0  0  0  0  0  0  0  0  0  0
    3.2601    6.7358    0.0000 C   0  0  0  0  0  0  0  0  0  0  0  0
    1.5037    2.5816    0.0000 C   0  0  0  0  0  0  0  0  0  0  0  0
    3.3621    3.6737    0.0000 C   0  0  0  0  0  0  0  0  0  0  0  0
    2.4434    2.0391    0.0000 C   0  0  0  0  0  0  0  0  0  0  0  0
    3.3788    2.5888    0.0000 C   0  0  0  0  0  0  0  0  0  0  0  0
    2.3780    8.2773    0.0000 C   0  0  0  0  0  0  0  0  0  0  0  0
    4.1701    7.2426    0.0000 C   0  0  0  0  0  0  0  0  0  0  0  0
    3.2761    8.8051    0.0000 C   0  0  0  0  0  0  0  0  0  0  0  0
    4.1781    8.2842    0.0000 C   0  0  0  0  0  0  0  0  0  0  0  0
    4.2621    1.0989    0.0000 C   0  0  0  0  0  0  0  0  0  0  0  0
    1.5831    0.5357    0.0000 C   0  0  0  0  0  0  0  0  0  0  0  0
    1.4947    9.7672    0.0000 C   0  0  0  0  0  0  0  0  0  0  0  0
    4.1363   10.3084    0.0000 C   0  0  0  0  0  0  0  0  0  0  0  0
    0.4135    5.8142    0.0000 H   0  0  0  0  0  0  0  0  0  0  0  0
    0.0064    5.1276    0.0000 H   0  0  0  0  0  0  0  0  0  0  0  0
    0.0000    4.2981    0.0000 H   0  0  0  0  0  0  0  0  0  0  0  0
    0.3965    3.6053    0.0000 H   0  0  0  0  0  0  0  0  0  0  0  0
    0.9911    7.0458    0.0000 H   0  0  0  0  0  0  0  0  0  0  0  0
    3.7970    5.4258    0.0000 H   0  0  0  0  0  0  0  0  0  0  0  0
    0.9656    2.2736    0.0000 H   0  0  0  0  0  0  0  0  0  0  0  0
    3.8929    3.9939    0.0000 H   0  0  0  0  0  0  0  0  0  0  0  0
    4.7034    6.9264    0.0000 H   0  0  0  0  0  0  0  0  0  0  0  0
    4.7163    8.5922    0.0000 H   0  0  0  0  0  0  0  0  0  0  0  0
    2.1147    9.7744    0.0000 H   0  0  0  0  0  0  0  0  0  0  0  0
    1.4875   10.3871    0.0000 H   0  0  0  0  0  0  0  0  0  0  0  0
    0.8747    9.7600    0.0000 H   0  0  0  0  0  0  0  0  0  0  0  0
    3.6421    1.0917    0.0000 H   0  0  0  0  0  0  0  0  0  0  0  0
    4.2693    0.4789    0.0000 H   0  0  0  0  0  0  0  0  0  0  0  0
    4.8821    1.1061    0.0000 H   0  0  0  0  0  0  0  0  0  0  0  0
    1.2711    1.0715    0.0000 H   0  0  0  0  0  0  0  0  0  0  0  0
    1.0474    0.2237    0.0000 H   0  0  0  0  0  0  0  0  0  0  0  0
    1.8952    0.0000    0.0000 H   0  0  0  0  0  0  0  0  0  0  0  0
    4.4484    9.7726    0.0000 H   0  0  0  0  0  0  0  0  0  0  0  0
    4.6720   10.6204    0.0000 H   0  0  0  0  0  0  0  0  0  0  0  0
    3.8242   10.8441    0.0000 H   0  0  0  0  0  0  0  0  0  0  0  0
  2 18  1  0  0  0  0
  2 25  1  0  0  0  0
  3 19  1  0  0  0  0
  3 24  1  0  0  0  0
  4 20  1  0  0  0  0
  4 26  1  0  0  0  0
  5 22  1  0  0  0  0
  5 27  1  0  0  0  0
  6  7  1  0  0  0  0
  6  9  2  0  0  0  0
  6 12  1  0  0  0  0
  7  8  1  0  0  0  0
  7 28  1  0  0  0  0
  7 29  1  0  0  0  0
  8 10  1  0  0  0  0
  8 30  1  0  0  0  0
  8 31  1  0  0  0  0
  9 11  1  0  0  0  0
  9 13  1  0  0  0  0
 10 11  1  0  0  0  0
 10 16  2  0  0  0  0
 11 17  2  0  0  0  0
 12 14  2  0  0  0  0
 12 32  1  0  0  0  0
 13 15  2  0  0  0  0
 13 33  1  0  0  0  0
 14 15  1  0  0  0  0
 14 20  1  0  0  0  0
 15 21  1  0  0  0  0
 16 18  1  0  0  0  0
 16 34  1  0  0  0  0
 17 19  1  0  0  0  0
 17 35  1  0  0  0  0
 18 19  2  0  0  0  0
 20 22  2  0  0  0  0
 21 23  2  0  0  0  0
 21 36  1  0  0  0  0
 22 23  1  0  0  0  0
 23 37  1  0  0  0  0
 24 41  1  0  0  0  0
 24 42  1  0  0  0  0
 24 43  1  0  0  0  0
 25 44  1  0  0  0  0
 25 45  1  0  0  0  0
 25 46  1  0  0  0  0
 26 38  1  0  0  0  0
 26 39  1  0  0  0  0
 26 40  1  0  0  0  0
 27 47  1  0  0  0  0
 27 48  1  0  0  0  0
 27 49  1  0  0  0  0
M  CHG  2   1  -1   6   1
M  END
> <PUBCHEM_COMPOUND_CID>
73442

> <PUBCHEM_COMPOUND_CANONICALIZED>
1

> <PUBCHEM_CACTVS_COMPLEXITY>
475

> <PUBCHEM_CACTVS_HBOND_ACCEPTOR>
5

> <PUBCHEM_CACTVS_HBOND_DONOR>
0

> <PUBCHEM_CACTVS_ROTATABLE_BOND>
4

> <PUBCHEM_CACTVS_SUBSKEYS>
AAADceB6OAAEAAAAAAAAAAAAAAAAAAAAAAA8eIEAAAAAAACx9AAAHgAAAAAADAzBngY+htMMFACgAzRnRACCiCAxIiAI2CA+7JgNJuLEsZuEMCpmwBnK6Aew0PMOoAABAAAYQABAAAIAADCAAAAAAAAAAA==

> <PUBCHEM_IUPAC_OPENEYE_NAME>
2,3,9,10-tetramethoxy-5,6-dihydroisoquinolino[2,1-b]isoquinolin-7-ium chloride

> <PUBCHEM_IUPAC_CAS_NAME>
2,3,9,10-tetramethoxy-5,6-dihydroisoquinolino[2,1-b]isoquinolin-7-ium chloride

> <PUBCHEM_IUPAC_NAME_MARKUP>
2,3,9,10-tetramethoxy-5,6-dihydroisoquinolino[2,1-b]isoquinolin-7-ium chloride

> <PUBCHEM_IUPAC_NAME>
2,3,9,10-tetramethoxy-5,6-dihydroisoquinolino[2,1-b]isoquinolin-7-ium chloride

> <PUBCHEM_IUPAC_SYSTEMATIC_NAME>
2,3,9,10-tetramethoxy-5,6-dihydroisoquinolino[2,1-b]isoquinolin-7-ium chloride

> <PUBCHEM_IUPAC_TRADITIONAL_NAME>
2,3,9,10-tetramethoxy-5,6-dihydroisoquinolin[2,1-b]isoquinolin-7-ium chloride

> <PUBCHEM_IUPAC_INCHI>
InChI=1S/C21H22NO4.ClH/c1-23-18-6-5-13-9-17-15-11-20(25-3)19(24-2)10-14(15)7-8-22(17)12-16(13)21(18)26-4;/h5-6,9-12H,7-8H2,1-4H3;1H/q+1;/p-1

> <PUBCHEM_IUPAC_INCHIKEY>
RLQYRXCUPVKSAW-UHFFFAOYSA-M

> <PUBCHEM_EXACT_MASS>
387.1237359

> <PUBCHEM_MOLECULAR_FORMULA>
C21H22ClNO4

> <PUBCHEM_MOLECULAR_WEIGHT>
387.9

> <PUBCHEM_SMILES>
COC1=C(C2=C[N+]3=C(C=C2C=C1)C4=CC(=C(C=C4CC3)OC)OC)OC.[Cl-]

> <PUBCHEM_CONNECTIVITY_SMILES>
COC1=C(C2=C[N+]3=C(C=C2C=C1)C4=CC(=C(C=C4CC3)OC)OC)OC.[Cl-]

> <PUBCHEM_CACTVS_TPSA>
40.8

> <PUBCHEM_MONOISOTOPIC_WEIGHT>
387.1237359

> <PUBCHEM_TOTAL_CHARGE>
0

> <PUBCHEM_HEAVY_ATOM_COUNT>
27

> <PUBCHEM_ATOM_DEF_STEREO_COUNT>
0

> <PUBCHEM_ATOM_UDEF_STEREO_COUNT>
0

> <PUBCHEM_BOND_DEF_STEREO_COUNT>
0

> <PUBCHEM_BOND_UDEF_STEREO_COUNT>
0

> <PUBCHEM_ISOTOPIC_ATOM_COUNT>
0

> <PUBCHEM_COMPONENT_COUNT>
2

> <PUBCHEM_CACTVS_TAUTO_COUNT>
-1

> <PUBCHEM_COORDINATE_TYPE>
1
5
255

> <PUBCHEM_BONDANNOTATIONS>
10  11  8
10  16  8
11  17  8
12  14  8
13  15  8
14  15  8
14  20  8
15  21  8
16  18  8
17  19  8
18  19  8
20  22  8
21  23  8
22  23  8
6  12  8
6  9  8
9  13  8

$$$$
