86705695
  -OEChem-10172515112D

 62 66  0     0  0  0  0  0  0999 V2000
    9.1876    1.9763    0.0000 F   0  0  0  0  0  0  0  0  0  0  0  0
   10.9081   -1.0304    0.0000 F   0  0  0  0  0  0  0  0  0  0  0  0
    2.5000    0.5259    0.0000 O   0  0  0  0  0  0  0  0  0  0  0  0
    8.2740    1.4971    0.0000 O   0  0  0  0  0  0  0  0  0  0  0  0
   12.6440   -0.0371    0.0000 O   0  0  0  0  0  0  0  0  0  0  0  0
   10.9235    2.9696    0.0000 O   0  0  0  0  0  0  0  0  0  0  0  0
    3.5000   -1.2062    0.0000 N   0  0  0  0  0  0  0  0  0  0  0  0
    7.3798   -0.0307    0.0000 N   0  0  0  0  0  0  0  0  0  0  0  0
    9.1799   -0.0237    0.0000 N   0  0  0  0  0  0  0  0  0  0  0  0
    5.5836   -2.8769    0.0000 N   0  0  0  0  0  0  0  0  0  0  0  0
    7.3959   -3.0722    0.0000 N   0  0  0  0  0  0  0  0  0  0  0  0
    7.3959   -1.0722    0.0000 C   0  0  0  0  0  0  0  0  0  0  0  0
    6.5298   -1.5722    0.0000 C   0  0  0  0  0  0  0  0  0  0  0  0
    4.0000   -2.0722    0.0000 C   0  0  0  0  0  0  0  0  0  0  0  0
    8.2619   -1.5722    0.0000 C   0  0  0  0  0  0  0  0  0  0  0  0
    5.0000   -2.0722    0.0000 C   0  0  0  0  0  0  0  0  0  0  0  0
    9.1719   -1.0653    0.0000 C   0  0  0  0  0  0  0  0  0  0  0  0
    6.5298   -2.5722    0.0000 C   0  0  0  0  0  0  0  0  0  0  0  0
    5.5836   -1.2674    0.0000 C   0  0  0  0  0  0  0  0  0  0  0  0
    2.5000   -1.2062    0.0000 C   0  0  0  0  0  0  0  0  0  0  0  0
    4.0000   -0.3401    0.0000 C   0  0  0  0  0  0  0  0  0  0  0  0
    8.2778    0.4971    0.0000 C   0  0  0  0  0  0  0  0  0  0  0  0
    2.0000   -0.3401    0.0000 C   0  0  0  0  0  0  0  0  0  0  0  0
    3.5000    0.5259    0.0000 C   0  0  0  0  0  0  0  0  0  0  0  0
    6.5081    0.4593    0.0000 C   0  0  0  0  0  0  0  0  0  0  0  0
    8.2619   -2.5722    0.0000 C   0  0  0  0  0  0  0  0  0  0  0  0
   10.0479    0.4729    0.0000 C   0  0  0  0  0  0  0  0  0  0  0  0
    6.4965    1.4592    0.0000 C   0  0  0  0  0  0  0  0  0  0  0  0
   10.0517    1.4729    0.0000 C   0  0  0  0  0  0  0  0  0  0  0  0
   10.9119   -0.0304    0.0000 C   0  0  0  0  0  0  0  0  0  0  0  0
   11.7799    0.4663    0.0000 C   0  0  0  0  0  0  0  0  0  0  0  0
   10.9197    1.9696    0.0000 C   0  0  0  0  0  0  0  0  0  0  0  0
   11.7837    1.4662    0.0000 C   0  0  0  0  0  0  0  0  0  0  0  0
   13.5119    0.4596    0.0000 C   0  0  0  0  0  0  0  0  0  0  0  0
   11.7915    3.4662    0.0000 C   0  0  0  0  0  0  0  0  0  0  0  0
    3.4174   -2.2842    0.0000 H   0  0  0  0  0  0  0  0  0  0  0  0
    4.1077   -2.6828    0.0000 H   0  0  0  0  0  0  0  0  0  0  0  0
    9.3764   -1.6506    0.0000 H   0  0  0  0  0  0  0  0  0  0  0  0
    9.7835   -0.9639    0.0000 H   0  0  0  0  0  0  0  0  0  0  0  0
    5.3910   -0.6781    0.0000 H   0  0  0  0  0  0  0  0  0  0  0  0
    1.9174   -1.4182    0.0000 H   0  0  0  0  0  0  0  0  0  0  0  0
    2.6077   -1.8167    0.0000 H   0  0  0  0  0  0  0  0  0  0  0  0
    4.4750   -0.7387    0.0000 H   0  0  0  0  0  0  0  0  0  0  0  0
    4.4750    0.0584    0.0000 H   0  0  0  0  0  0  0  0  0  0  0  0
    5.3910   -3.4662    0.0000 H   0  0  0  0  0  0  0  0  0  0  0  0
    1.5251    0.0584    0.0000 H   0  0  0  0  0  0  0  0  0  0  0  0
    1.5251   -0.7387    0.0000 H   0  0  0  0  0  0  0  0  0  0  0  0
    4.0826    0.7380    0.0000 H   0  0  0  0  0  0  0  0  0  0  0  0
    3.3923    1.1365    0.0000 H   0  0  0  0  0  0  0  0  0  0  0  0
    5.8963    0.5599    0.0000 H   0  0  0  0  0  0  0  0  0  0  0  0
    6.3027   -0.1257    0.0000 H   0  0  0  0  0  0  0  0  0  0  0  0
    8.7988   -2.8822    0.0000 H   0  0  0  0  0  0  0  0  0  0  0  0
    7.1164    1.4664    0.0000 H   0  0  0  0  0  0  0  0  0  0  0  0
    6.4893    2.0792    0.0000 H   0  0  0  0  0  0  0  0  0  0  0  0
    5.8765    1.4521    0.0000 H   0  0  0  0  0  0  0  0  0  0  0  0
   12.3219    1.7742    0.0000 H   0  0  0  0  0  0  0  0  0  0  0  0
   13.8199   -0.0786    0.0000 H   0  0  0  0  0  0  0  0  0  0  0  0
   14.0501    0.7675    0.0000 H   0  0  0  0  0  0  0  0  0  0  0  0
   13.2040    0.9977    0.0000 H   0  0  0  0  0  0  0  0  0  0  0  0
   12.0994    2.9281    0.0000 H   0  0  0  0  0  0  0  0  0  0  0  0
   12.3296    3.7742    0.0000 H   0  0  0  0  0  0  0  0  0  0  0  0
   11.4835    4.0044    0.0000 H   0  0  0  0  0  0  0  0  0  0  0  0
  1 29  1  0  0  0  0
  2 30  1  0  0  0  0
  3 23  1  0  0  0  0
  3 24  1  0  0  0  0
  4 22  2  0  0  0  0
  5 31  1  0  0  0  0
  5 34  1  0  0  0  0
  6 32  1  0  0  0  0
  6 35  1  0  0  0  0
  7 14  1  0  0  0  0
  7 20  1  0  0  0  0
  7 21  1  0  0  0  0
  8 12  1  0  0  0  0
  8 22  1  0  0  0  0
  8 25  1  0  0  0  0
  9 17  1  0  0  0  0
  9 22  1  0  0  0  0
  9 27  1  0  0  0  0
 10 16  1  0  0  0  0
 10 18  1  0  0  0  0
 10 45  1  0  0  0  0
 11 18  2  0  0  0  0
 11 26  1  0  0  0  0
 12 13  2  0  0  0  0
 12 15  1  0  0  0  0
 13 18  1  0  0  0  0
 13 19  1  0  0  0  0
 14 16  1  0  0  0  0
 14 36  1  0  0  0  0
 14 37  1  0  0  0  0
 15 17  1  0  0  0  0
 15 26  2  0  0  0  0
 16 19  2  0  0  0  0
 17 38  1  0  0  0  0
 17 39  1  0  0  0  0
 19 40  1  0  0  0  0
 20 23  1  0  0  0  0
 20 41  1  0  0  0  0
 20 42  1  0  0  0  0
 21 24  1  0  0  0  0
 21 43  1  0  0  0  0
 21 44  1  0  0  0  0
 23 46  1  0  0  0  0
 23 47  1  0  0  0  0
 24 48  1  0  0  0  0
 24 49  1  0  0  0  0
 25 28  1  0  0  0  0
 25 50  1  0  0  0  0
 25 51  1  0  0  0  0
 26 52  1  0  0  0  0
 27 29  2  0  0  0  0
 27 30  1  0  0  0  0
 28 53  1  0  0  0  0
 28 54  1  0  0  0  0
 28 55  1  0  0  0  0
 29 32  1  0  0  0  0
 30 31  2  0  0  0  0
 31 33  1  0  0  0  0
 32 33  2  0  0  0  0
 33 56  1  0  0  0  0
 34 57  1  0  0  0  0
 34 58  1  0  0  0  0
 34 59  1  0  0  0  0
 35 60  1  0  0  0  0
 35 61  1  0  0  0  0
 35 62  1  0  0  0  0
M  END
> <PUBCHEM_COMPOUND_CID>
86705695

> <PUBCHEM_COMPOUND_CANONICALIZED>
1

> <PUBCHEM_CACTVS_COMPLEXITY>
731

> <PUBCHEM_CACTVS_HBOND_ACCEPTOR>
8

> <PUBCHEM_CACTVS_HBOND_DONOR>
1

> <PUBCHEM_CACTVS_ROTATABLE_BOND>
6

> <PUBCHEM_CACTVS_SUBSKEYS>
AAADceB7uYAAAAAAAAAAAAAAAAAAAWAAAAA8WLEAAAAAAFix/AAAHwAQAAAADAzhnw4/9t/JlACoAzZndACCiCmxIqAB2SA+bJiOb+LE+duXNChv1h/Y6CeQ8E8OAAAACgAAAAAAAAAUAAAAAAAAAAAAAA==

> <PUBCHEM_IUPAC_OPENEYE_NAME>
11-(2,6-difluoro-3,5-dimethoxy-phenyl)-13-ethyl-4-(morpholinomethyl)-5,7,11,13-tetrazatricyclo[7.4.0.02,6]trideca-1,3,6,8-tetraen-12-one

> <PUBCHEM_IUPAC_CAS_NAME>
11-(2,6-difluoro-3,5-dimethoxyphenyl)-13-ethyl-4-(4-morpholinylmethyl)-5,7,11,13-tetrazatricyclo[7.4.0.02,6]trideca-1,3,6,8-tetraen-12-one

> <PUBCHEM_IUPAC_NAME_MARKUP>
11-(2,6-difluoro-3,5-dimethoxyphenyl)-13-ethyl-4-(morpholin-4-ylmethyl)-5,7,11,13-tetrazatricyclo[7.4.0.0<SUP>2,6</SUP>]trideca-1,3,6,8-tetraen-12-one

> <PUBCHEM_IUPAC_NAME>
11-(2,6-difluoro-3,5-dimethoxyphenyl)-13-ethyl-4-(morpholin-4-ylmethyl)-5,7,11,13-tetrazatricyclo[7.4.0.02,6]trideca-1,3,6,8-tetraen-12-one

> <PUBCHEM_IUPAC_SYSTEMATIC_NAME>
11-[2,6-bis(fluoranyl)-3,5-dimethoxy-phenyl]-13-ethyl-4-(morpholin-4-ylmethyl)-5,7,11,13-tetrazatricyclo[7.4.0.02,6]trideca-1,3,6,8-tetraen-12-one

> <PUBCHEM_IUPAC_TRADITIONAL_NAME>
11-(2,6-difluoro-3,5-dimethoxy-phenyl)-13-ethyl-4-(morpholinomethyl)-5,7,11,13-tetrazatricyclo[7.4.0.02,6]trideca-1,3,6,8-tetraen-12-one

> <PUBCHEM_IUPAC_INCHI>
InChI=1S/C24H27F2N5O4/c1-4-30-21-14(11-27-23-16(21)9-15(28-23)13-29-5-7-35-8-6-29)12-31(24(30)32)22-19(25)17(33-2)10-18(34-3)20(22)26/h9-11H,4-8,12-13H2,1-3H3,(H,27,28)

> <PUBCHEM_IUPAC_INCHIKEY>
HCDMJFOHIXMBOV-UHFFFAOYSA-N

> <PUBCHEM_XLOGP3_AA>
1.8

> <PUBCHEM_EXACT_MASS>
487.20311068

> <PUBCHEM_MOLECULAR_FORMULA>
C24H27F2N5O4

> <PUBCHEM_MOLECULAR_WEIGHT>
487.5

> <PUBCHEM_SMILES>
CCN1C2=C3C=C(NC3=NC=C2CN(C1=O)C4=C(C(=CC(=C4F)OC)OC)F)CN5CCOCC5

> <PUBCHEM_CONNECTIVITY_SMILES>
CCN1C2=C3C=C(NC3=NC=C2CN(C1=O)C4=C(C(=CC(=C4F)OC)OC)F)CN5CCOCC5

> <PUBCHEM_CACTVS_TPSA>
83.2

> <PUBCHEM_MONOISOTOPIC_WEIGHT>
487.20311068

> <PUBCHEM_TOTAL_CHARGE>
0

> <PUBCHEM_HEAVY_ATOM_COUNT>
35

> <PUBCHEM_ATOM_DEF_STEREO_COUNT>
0

> <PUBCHEM_ATOM_UDEF_STEREO_COUNT>
0

> <PUBCHEM_BOND_DEF_STEREO_COUNT>
0

> <PUBCHEM_BOND_UDEF_STEREO_COUNT>
0

> <PUBCHEM_ISOTOPIC_ATOM_COUNT>
0

> <PUBCHEM_COMPONENT_COUNT>
1

> <PUBCHEM_CACTVS_TAUTO_COUNT>
-1

> <PUBCHEM_COORDINATE_TYPE>
1
5
255

> <PUBCHEM_BONDANNOTATIONS>
10  16  8
10  18  8
11  18  8
11  26  8
12  13  8
12  15  8
13  18  8
13  19  8
15  26  8
16  19  8
27  29  8
27  30  8
29  32  8
30  31  8
31  33  8
32  33  8

$$$$
