9853654
  -OEChem-10172515072D

103105  0     1  0  0  0  0  0999 V2000
    8.3316    0.2923    0.0000 S   0  0  0  0  0  0  0  0  0  0  0  0
    7.3996   -2.5593    0.0000 O   0  0  0  0  0  0  0  0  0  0  0  0
    4.4176   -0.5326    0.0000 O   0  0  0  0  0  0  0  0  0  0  0  0
    4.6817    3.0633    0.0000 O   0  0  0  0  0  0  0  0  0  0  0  0
    8.0675   -3.3036    0.0000 O   0  0  0  0  0  0  0  0  0  0  0  0
   11.7174   -6.0746    0.0000 O   0  0  0  0  0  0  0  0  0  0  0  0
    2.4141    1.7003    0.0000 O   0  0  0  0  0  0  0  0  0  0  0  0
    7.9279    4.6324    0.0000 O   0  0  0  0  0  0  0  0  0  0  0  0
    3.7032    2.8570    0.0000 O   0  0  0  0  0  0  0  0  0  0  0  0
   11.3602   -4.3798    0.0000 O   0  0  0  0  0  0  0  0  0  0  0  0
    5.7533   -2.0212    0.0000 N   0  0  0  0  0  0  0  0  0  0  0  0
    6.7783   -4.4603    0.0000 N   0  0  0  0  0  0  0  0  0  0  0  0
    5.7068    0.6241    0.0000 N   0  0  0  0  0  0  0  0  0  0  0  0
    4.8213   -6.4822    0.0000 N   0  0  0  0  0  0  0  0  0  0  0  0
    6.3281    2.5252    0.0000 N   0  0  0  0  0  0  0  0  0  0  0  0
   10.0710   -5.5365    0.0000 N   0  0  0  0  0  0  0  0  0  0  0  0
    8.2851    2.9376    0.0000 N   0  0  0  0  0  0  0  0  0  0  0  0
    6.1105   -3.7160    0.0000 C   0  0  1  0  0  0  0  0  0  0  0  0
    5.1320   -3.9223    0.0000 C   0  0  0  0  0  0  0  0  0  0  0  0
    6.0639   -1.0707    0.0000 C   0  0  1  0  0  0  0  0  0  0  0  0
    4.8213   -4.8728    0.0000 C   0  0  0  0  0  0  0  0  0  0  0  0
    6.4211   -2.7655    0.0000 C   0  0  0  0  0  0  0  0  0  0  0  0
    7.0425   -0.8645    0.0000 C   0  0  0  0  0  0  0  0  0  0  0  0
    3.8751   -5.1775    0.0000 C   0  0  0  0  0  0  0  0  0  0  0  0
    5.3961   -0.3264    0.0000 C   0  0  0  0  0  0  0  0  0  0  0  0
    5.0389    1.3684    0.0000 C   0  0  1  0  0  0  0  0  0  0  0  0
    3.8751   -6.1775    0.0000 C   0  0  0  0  0  0  0  0  0  0  0  0
    5.4049   -5.6775    0.0000 C   0  0  0  0  0  0  0  0  0  0  0  0
    7.3531    0.0861    0.0000 C   0  0  0  0  0  0  0  0  0  0  0  0
    4.0604    1.1622    0.0000 C   0  0  0  0  0  0  0  0  0  0  0  0
    3.0091   -4.6775    0.0000 C   0  0  0  0  0  0  0  0  0  0  0  0
    7.7568   -4.2541    0.0000 C   0  0  0  0  0  0  0  0  0  0  0  0
    5.3496    2.3190    0.0000 C   0  0  0  0  0  0  0  0  0  0  0  0
    6.6388    3.4757    0.0000 C   0  0  1  0  0  0  0  0  0  0  0  0
    3.0091   -6.6775    0.0000 C   0  0  0  0  0  0  0  0  0  0  0  0
    8.4247   -4.9984    0.0000 C   0  0  0  0  0  0  0  0  0  0  0  0
    5.9709    4.2200    0.0000 C   0  0  0  0  0  0  0  0  0  0  0  0
    2.1430   -5.1775    0.0000 C   0  0  0  0  0  0  0  0  0  0  0  0
    2.1430   -6.1775    0.0000 C   0  0  0  0  0  0  0  0  0  0  0  0
    9.4032   -4.7922    0.0000 C   0  0  0  0  0  0  0  0  0  0  0  0
    6.2816    5.1705    0.0000 C   0  0  0  0  0  0  0  0  0  0  0  0
    3.3926    1.9065    0.0000 C   0  0  0  0  0  0  0  0  0  0  0  0
    7.6173    3.6819    0.0000 C   0  0  0  0  0  0  0  0  0  0  0  0
   12.6959   -5.8684    0.0000 C   0  0  0  0  0  0  0  0  0  0  0  0
    5.6137    5.9148    0.0000 C   0  0  0  0  0  0  0  0  0  0  0  0
    7.2601    5.3767    0.0000 C   0  0  0  0  0  0  0  0  0  0  0  0
    8.6423    1.2428    0.0000 C   0  0  0  0  0  0  0  0  0  0  0  0
   11.0495   -5.3303    0.0000 C   0  0  0  0  0  0  0  0  0  0  0  0
   13.6744   -5.6621    0.0000 C   0  0  0  0  0  0  0  0  0  0  0  0
   12.9021   -6.8469    0.0000 C   0  0  0  0  0  0  0  0  0  0  0  0
   12.4896   -4.8899    0.0000 C   0  0  0  0  0  0  0  0  0  0  0  0
    5.9244    6.8653    0.0000 C   0  0  0  0  0  0  0  0  0  0  0  0
    7.5707    6.3273    0.0000 C   0  0  0  0  0  0  0  0  0  0  0  0
    6.9029    7.0716    0.0000 C   0  0  0  0  0  0  0  0  0  0  0  0
    5.9179   -4.3054    0.0000 H   0  0  0  0  0  0  0  0  0  0  0  0
    5.1114   -3.3026    0.0000 H   0  0  0  0  0  0  0  0  0  0  0  0
    4.5181   -3.8349    0.0000 H   0  0  0  0  0  0  0  0  0  0  0  0
    6.4780   -1.5322    0.0000 H   0  0  0  0  0  0  0  0  0  0  0  0
    7.0630   -1.4841    0.0000 H   0  0  0  0  0  0  0  0  0  0  0  0
    7.6563   -0.9518    0.0000 H   0  0  0  0  0  0  0  0  0  0  0  0
    5.1466   -2.1491    0.0000 H   0  0  0  0  0  0  0  0  0  0  0  0
    6.5857   -5.0497    0.0000 H   0  0  0  0  0  0  0  0  0  0  0  0
    4.8463    0.7791    0.0000 H   0  0  0  0  0  0  0  0  0  0  0  0
    6.0249   -5.6775    0.0000 H   0  0  0  0  0  0  0  0  0  0  0  0
    6.3134    0.7520    0.0000 H   0  0  0  0  0  0  0  0  0  0  0  0
    5.0139   -7.0716    0.0000 H   0  0  0  0  0  0  0  0  0  0  0  0
    7.3326    0.7057    0.0000 H   0  0  0  0  0  0  0  0  0  0  0  0
    6.7393    0.1734    0.0000 H   0  0  0  0  0  0  0  0  0  0  0  0
    3.5341    0.8346    0.0000 H   0  0  0  0  0  0  0  0  0  0  0  0
    4.2917    0.5870    0.0000 H   0  0  0  0  0  0  0  0  0  0  0  0
    3.0091   -4.0575    0.0000 H   0  0  0  0  0  0  0  0  0  0  0  0
    7.0528    3.0142    0.0000 H   0  0  0  0  0  0  0  0  0  0  0  0
    3.0091   -7.2975    0.0000 H   0  0  0  0  0  0  0  0  0  0  0  0
    7.8983   -5.3261    0.0000 H   0  0  0  0  0  0  0  0  0  0  0  0
    8.6559   -5.5737    0.0000 H   0  0  0  0  0  0  0  0  0  0  0  0
    6.7422    2.0637    0.0000 H   0  0  0  0  0  0  0  0  0  0  0  0
    5.4240    4.5120    0.0000 H   0  0  0  0  0  0  0  0  0  0  0  0
    5.5884    3.7321    0.0000 H   0  0  0  0  0  0  0  0  0  0  0  0
    1.6061   -4.8675    0.0000 H   0  0  0  0  0  0  0  0  0  0  0  0
    1.6061   -6.4875    0.0000 H   0  0  0  0  0  0  0  0  0  0  0  0
    9.9295   -4.4646    0.0000 H   0  0  0  0  0  0  0  0  0  0  0  0
    9.1719   -4.2169    0.0000 H   0  0  0  0  0  0  0  0  0  0  0  0
    9.8784   -6.1258    0.0000 H   0  0  0  0  0  0  0  0  0  0  0  0
    5.0071    5.7870    0.0000 H   0  0  0  0  0  0  0  0  0  0  0  0
    7.6741    4.9153    0.0000 H   0  0  0  0  0  0  0  0  0  0  0  0
    9.2316    1.0502    0.0000 H   0  0  0  0  0  0  0  0  0  0  0  0
    8.8349    1.8321    0.0000 H   0  0  0  0  0  0  0  0  0  0  0  0
    8.0530    1.4354    0.0000 H   0  0  0  0  0  0  0  0  0  0  0  0
   13.8022   -6.2688    0.0000 H   0  0  0  0  0  0  0  0  0  0  0  0
   14.2810   -5.5343    0.0000 H   0  0  0  0  0  0  0  0  0  0  0  0
   13.5465   -5.0555    0.0000 H   0  0  0  0  0  0  0  0  0  0  0  0
   12.2954   -6.9747    0.0000 H   0  0  0  0  0  0  0  0  0  0  0  0
   13.0299   -7.4535    0.0000 H   0  0  0  0  0  0  0  0  0  0  0  0
   13.5088   -6.7190    0.0000 H   0  0  0  0  0  0  0  0  0  0  0  0
   13.0963   -4.7620    0.0000 H   0  0  0  0  0  0  0  0  0  0  0  0
   12.3618   -4.2832    0.0000 H   0  0  0  0  0  0  0  0  0  0  0  0
   11.8830   -5.0177    0.0000 H   0  0  0  0  0  0  0  0  0  0  0  0
    8.8918    3.0655    0.0000 H   0  0  0  0  0  0  0  0  0  0  0  0
    8.0925    2.3483    0.0000 H   0  0  0  0  0  0  0  0  0  0  0  0
    5.5103    7.3268    0.0000 H   0  0  0  0  0  0  0  0  0  0  0  0
    8.1774    6.4551    0.0000 H   0  0  0  0  0  0  0  0  0  0  0  0
    2.0000    2.1618    0.0000 H   0  0  0  0  0  0  0  0  0  0  0  0
    7.0955    7.6609    0.0000 H   0  0  0  0  0  0  0  0  0  0  0  0
  1 29  1  0  0  0  0
  1 47  1  0  0  0  0
  2 22  2  0  0  0  0
  3 25  2  0  0  0  0
  4 33  2  0  0  0  0
  5 32  2  0  0  0  0
  6 44  1  0  0  0  0
  6 48  1  0  0  0  0
  7 42  1  0  0  0  0
  7102  1  0  0  0  0
  8 43  2  0  0  0  0
  9 42  2  0  0  0  0
 10 48  2  0  0  0  0
 20 11  1  6  0  0  0
 11 22  1  0  0  0  0
 11 61  1  0  0  0  0
 18 12  1  1  0  0  0
 12 32  1  0  0  0  0
 12 62  1  0  0  0  0
 13 25  1  0  0  0  0
 26 13  1  1  0  0  0
 13 65  1  0  0  0  0
 14 27  1  0  0  0  0
 14 28  1  0  0  0  0
 14 66  1  0  0  0  0
 15 33  1  0  0  0  0
 34 15  1  1  0  0  0
 15 76  1  0  0  0  0
 16 40  1  0  0  0  0
 16 48  1  0  0  0  0
 16 83  1  0  0  0  0
 17 43  1  0  0  0  0
 17 98  1  0  0  0  0
 17 99  1  0  0  0  0
 18 19  1  0  0  0  0
 18 22  1  0  0  0  0
 18 55  1  0  0  0  0
 19 21  1  0  0  0  0
 19 56  1  0  0  0  0
 19 57  1  0  0  0  0
 20 23  1  0  0  0  0
 20 25  1  0  0  0  0
 20 58  1  0  0  0  0
 21 24  1  0  0  0  0
 21 28  2  0  0  0  0
 23 29  1  0  0  0  0
 23 59  1  0  0  0  0
 23 60  1  0  0  0  0
 24 27  1  0  0  0  0
 24 31  2  0  0  0  0
 26 30  1  0  0  0  0
 26 33  1  0  0  0  0
 26 63  1  0  0  0  0
 27 35  2  0  0  0  0
 28 64  1  0  0  0  0
 29 67  1  0  0  0  0
 29 68  1  0  0  0  0
 30 42  1  0  0  0  0
 30 69  1  0  0  0  0
 30 70  1  0  0  0  0
 31 38  1  0  0  0  0
 31 71  1  0  0  0  0
 32 36  1  0  0  0  0
 34 37  1  0  0  0  0
 34 43  1  0  0  0  0
 34 72  1  0  0  0  0
 35 39  1  0  0  0  0
 35 73  1  0  0  0  0
 36 40  1  0  0  0  0
 36 74  1  0  0  0  0
 36 75  1  0  0  0  0
 37 41  1  0  0  0  0
 37 77  1  0  0  0  0
 37 78  1  0  0  0  0
 38 39  2  0  0  0  0
 38 79  1  0  0  0  0
 39 80  1  0  0  0  0
 40 81  1  0  0  0  0
 40 82  1  0  0  0  0
 41 45  2  0  0  0  0
 41 46  1  0  0  0  0
 44 49  1  0  0  0  0
 44 50  1  0  0  0  0
 44 51  1  0  0  0  0
 45 52  1  0  0  0  0
 45 84  1  0  0  0  0
 46 53  2  0  0  0  0
 46 85  1  0  0  0  0
 47 86  1  0  0  0  0
 47 87  1  0  0  0  0
 47 88  1  0  0  0  0
 49 89  1  0  0  0  0
 49 90  1  0  0  0  0
 49 91  1  0  0  0  0
 50 92  1  0  0  0  0
 50 93  1  0  0  0  0
 50 94  1  0  0  0  0
 51 95  1  0  0  0  0
 51 96  1  0  0  0  0
 51 97  1  0  0  0  0
 52 54  2  0  0  0  0
 52100  1  0  0  0  0
 53 54  1  0  0  0  0
 53101  1  0  0  0  0
 54103  1  0  0  0  0
M  END
> <PUBCHEM_COMPOUND_CID>
9853654

> <PUBCHEM_COMPOUND_CANONICALIZED>
1

> <PUBCHEM_CACTVS_COMPLEXITY>
1310

> <PUBCHEM_CACTVS_HBOND_ACCEPTOR>
10

> <PUBCHEM_CACTVS_HBOND_DONOR>
8

> <PUBCHEM_CACTVS_ROTATABLE_BOND>
22

> <PUBCHEM_CACTVS_SUBSKEYS>
AAADcfB/vABAAAAAAAAAAAAAAAAAAWAAAAAwYAAAAAAAAFgB9AAAHgQQCAAADGzF3gS+yPLJlgioAzX3XACCgCAxAjAI2aG4ZJkIYPrg0bGcYAhmlgDIyAc/icCOgAAAAAACAAAAAAAAAAQAAAAAAAAAAA==

> <PUBCHEM_IUPAC_OPENEYE_NAME>
(3S)-4-[[(1S)-2-amino-1-benzyl-2-oxo-ethyl]amino]-3-[[(2S)-2-[[(2S)-2-[3-(tert-butoxycarbonylamino)propanoylamino]-3-(1H-indol-3-yl)propanoyl]amino]-4-methylsulfanyl-butanoyl]amino]-4-oxo-butanoic acid

> <PUBCHEM_IUPAC_CAS_NAME>
(3S)-4-[[(2S)-1-amino-1-oxo-3-phenylpropan-2-yl]amino]-3-[[(2S)-2-[[(2S)-3-(1H-indol-3-yl)-2-[[3-[[(2-methylpropan-2-yl)oxy-oxomethyl]amino]-1-oxopropyl]amino]-1-oxopropyl]amino]-4-(methylthio)-1-oxobutyl]amino]-4-oxobutanoic acid

> <PUBCHEM_IUPAC_NAME_MARKUP>
(3<I>S</I>)-4-[[(2<I>S</I>)-1-amino-1-oxo-3-phenylpropan-2-yl]amino]-3-[[(2<I>S</I>)-2-[[(2<I>S</I>)-3-(1<I>H</I>-indol-3-yl)-2-[3-[(2-methylpropan-2-yl)oxycarbonylamino]propanoylamino]propanoyl]amino]-4-methylsulfanylbutanoyl]amino]-4-oxobutanoic acid

> <PUBCHEM_IUPAC_NAME>
(3S)-4-[[(2S)-1-amino-1-oxo-3-phenylpropan-2-yl]amino]-3-[[(2S)-2-[[(2S)-3-(1H-indol-3-yl)-2-[3-[(2-methylpropan-2-yl)oxycarbonylamino]propanoylamino]propanoyl]amino]-4-methylsulfanylbutanoyl]amino]-4-oxobutanoic acid

> <PUBCHEM_IUPAC_SYSTEMATIC_NAME>
(3S)-4-[[(2S)-1-azanyl-1-oxidanylidene-3-phenyl-propan-2-yl]amino]-3-[[(2S)-2-[[(2S)-3-(1H-indol-3-yl)-2-[3-[(2-methylpropan-2-yl)oxycarbonylamino]propanoylamino]propanoyl]amino]-4-methylsulfanyl-butanoyl]amino]-4-oxidanylidene-butanoic acid

> <PUBCHEM_IUPAC_TRADITIONAL_NAME>
(3S)-4-[[(1S)-2-amino-1-benzyl-2-keto-ethyl]amino]-3-[[(2S)-2-[[(2S)-2-[3-(tert-butoxycarbonylamino)propanoylamino]-3-(1H-indol-3-yl)propanoyl]amino]-4-(methylthio)butanoyl]amino]-4-keto-butyric acid

> <PUBCHEM_IUPAC_INCHI>
InChI=1S/C37H49N7O9S/c1-37(2,3)53-36(52)39-16-14-30(45)41-28(19-23-21-40-25-13-9-8-12-24(23)25)34(50)42-26(15-17-54-4)33(49)44-29(20-31(46)47)35(51)43-27(32(38)48)18-22-10-6-5-7-11-22/h5-13,21,26-29,40H,14-20H2,1-4H3,(H2,38,48)(H,39,52)(H,41,45)(H,42,50)(H,43,51)(H,44,49)(H,46,47)/t26-,27-,28-,29-/m0/s1

> <PUBCHEM_IUPAC_INCHIKEY>
NEYNJQRKHLUJRU-DZUOILHNSA-N

> <PUBCHEM_XLOGP3>
1.5

> <PUBCHEM_EXACT_MASS>
767.33124734

> <PUBCHEM_MOLECULAR_FORMULA>
C37H49N7O9S

> <PUBCHEM_MOLECULAR_WEIGHT>
767.9

> <PUBCHEM_SMILES>
CC(C)(C)OC(=O)NCCC(=O)N[C@@H](CC1=CNC2=CC=CC=C21)C(=O)N[C@@H](CCSC)C(=O)N[C@@H](CC(=O)O)C(=O)N[C@@H](CC3=CC=CC=C3)C(=O)N

> <PUBCHEM_CONNECTIVITY_SMILES>
CC(C)(C)OC(=O)NCCC(=O)NC(CC1=CNC2=CC=CC=C21)C(=O)NC(CCSC)C(=O)NC(CC(=O)O)C(=O)NC(CC3=CC=CC=C3)C(=O)N

> <PUBCHEM_CACTVS_TPSA>
276

> <PUBCHEM_MONOISOTOPIC_WEIGHT>
767.33124734

> <PUBCHEM_TOTAL_CHARGE>
0

> <PUBCHEM_HEAVY_ATOM_COUNT>
54

> <PUBCHEM_ATOM_DEF_STEREO_COUNT>
4

> <PUBCHEM_ATOM_UDEF_STEREO_COUNT>
0

> <PUBCHEM_BOND_DEF_STEREO_COUNT>
0

> <PUBCHEM_BOND_UDEF_STEREO_COUNT>
0

> <PUBCHEM_ISOTOPIC_ATOM_COUNT>
0

> <PUBCHEM_COMPONENT_COUNT>
1

> <PUBCHEM_CACTVS_TAUTO_COUNT>
-1

> <PUBCHEM_COORDINATE_TYPE>
1
5
255

> <PUBCHEM_BONDANNOTATIONS>
20  11  6
18  12  5
26  13  5
14  27  8
14  28  8
34  15  5
21  24  8
21  28  8
24  27  8
24  31  8
27  35  8
31  38  8
35  39  8
38  39  8
41  45  8
41  46  8
45  52  8
46  53  8
52  54  8
53  54  8

$$$$
