67501411
  -OEChem-10172515112D

 60 64  0     0  0  0  0  0  0999 V2000
    5.2531   -6.0933    0.0000 O   0  0  0  0  0  0  0  0  0  0  0  0
    4.6783   -1.5469    0.0000 N   0  0  0  0  0  0  0  0  0  0  0  0
    5.2619   -0.7422    0.0000 N   0  0  0  0  0  0  0  0  0  0  0  0
    2.8660    1.2578    0.0000 N   0  0  0  0  0  0  0  0  0  0  0  0
    2.8660   -1.7422    0.0000 N   0  0  0  0  0  0  0  0  0  0  0  0
    2.3660    2.7967    0.0000 N   0  0  0  0  0  0  0  0  0  0  0  0
    4.4538    5.1445    0.0000 N   0  0  0  0  0  0  0  0  0  0  0  0
    5.2628    4.5567    0.0000 N   0  0  0  0  0  0  0  0  0  0  0  0
    6.8994   -5.5552    0.0000 N   0  0  0  0  0  0  0  0  0  0  0  0
    3.7321   -0.2422    0.0000 C   0  0  0  0  0  0  0  0  0  0  0  0
    4.6783    0.0626    0.0000 C   0  0  0  0  0  0  0  0  0  0  0  0
    4.9889    1.0131    0.0000 C   0  0  0  0  0  0  0  0  0  0  0  0
    3.7321   -1.2422    0.0000 C   0  0  0  0  0  0  0  0  0  0  0  0
    2.8660    0.2578    0.0000 C   0  0  0  0  0  0  0  0  0  0  0  0
    4.9889   -2.4974    0.0000 C   0  0  0  0  0  0  0  0  0  0  0  0
    5.9674    1.2193    0.0000 C   0  0  0  0  0  0  0  0  0  0  0  0
    4.3211    1.7574    0.0000 C   0  0  0  0  0  0  0  0  0  0  0  0
    4.3211   -3.2417    0.0000 C   0  0  0  0  0  0  0  0  0  0  0  0
    2.0000   -0.2422    0.0000 C   0  0  0  0  0  0  0  0  0  0  0  0
    5.9674   -2.7036    0.0000 C   0  0  0  0  0  0  0  0  0  0  0  0
    3.3426   -3.0355    0.0000 C   0  0  0  0  0  0  0  0  0  0  0  0
    2.0000   -1.2422    0.0000 C   0  0  0  0  0  0  0  0  0  0  0  0
    4.6318   -4.1923    0.0000 C   0  0  0  0  0  0  0  0  0  0  0  0
    3.6750    1.8456    0.0000 C   0  0  0  0  0  0  0  0  0  0  0  0
    2.0570    1.8456    0.0000 C   0  0  0  0  0  0  0  0  0  0  0  0
    5.6103   -4.3985    0.0000 C   0  0  0  0  0  0  0  0  0  0  0  0
    6.2781   -3.6542    0.0000 C   0  0  0  0  0  0  0  0  0  0  0  0
    3.3660    2.7967    0.0000 C   0  0  0  0  0  0  0  0  0  0  0  0
    2.6747   -3.7798    0.0000 C   0  0  0  0  0  0  0  0  0  0  0  0
    3.9538    3.6057    0.0000 C   0  0  0  0  0  0  0  0  0  0  0  0
    5.9209   -5.3490    0.0000 C   0  0  0  0  0  0  0  0  0  0  0  0
    3.6448    4.5567    0.0000 C   0  0  0  0  0  0  0  0  0  0  0  0
    4.9538    3.6057    0.0000 C   0  0  0  0  0  0  0  0  0  0  0  0
    4.4538    6.1445    0.0000 C   0  0  0  0  0  0  0  0  0  0  0  0
    5.1815    1.6024    0.0000 H   0  0  0  0  0  0  0  0  0  0  0  0
    6.0953    0.6126    0.0000 H   0  0  0  0  0  0  0  0  0  0  0  0
    6.5741    1.3472    0.0000 H   0  0  0  0  0  0  0  0  0  0  0  0
    5.8396    1.8260    0.0000 H   0  0  0  0  0  0  0  0  0  0  0  0
    4.7826    2.1714    0.0000 H   0  0  0  0  0  0  0  0  0  0  0  0
    3.9070    2.2189    0.0000 H   0  0  0  0  0  0  0  0  0  0  0  0
    3.8596    1.3433    0.0000 H   0  0  0  0  0  0  0  0  0  0  0  0
    1.4631    0.0678    0.0000 H   0  0  0  0  0  0  0  0  0  0  0  0
    6.3815   -2.2422    0.0000 H   0  0  0  0  0  0  0  0  0  0  0  0
    3.5738   -2.4603    0.0000 H   0  0  0  0  0  0  0  0  0  0  0  0
    2.8162   -2.7079    0.0000 H   0  0  0  0  0  0  0  0  0  0  0  0
    1.4631   -1.5522    0.0000 H   0  0  0  0  0  0  0  0  0  0  0  0
    4.2177   -4.6537    0.0000 H   0  0  0  0  0  0  0  0  0  0  0  0
    4.2647    1.6540    0.0000 H   0  0  0  0  0  0  0  0  0  0  0  0
    1.4674    1.6540    0.0000 H   0  0  0  0  0  0  0  0  0  0  0  0
    6.8848   -3.7820    0.0000 H   0  0  0  0  0  0  0  0  0  0  0  0
    2.2133   -3.3658    0.0000 H   0  0  0  0  0  0  0  0  0  0  0  0
    2.2607   -4.2413    0.0000 H   0  0  0  0  0  0  0  0  0  0  0  0
    3.1362   -4.1939    0.0000 H   0  0  0  0  0  0  0  0  0  0  0  0
    3.0551    4.7483    0.0000 H   0  0  0  0  0  0  0  0  0  0  0  0
    5.3182    3.1041    0.0000 H   0  0  0  0  0  0  0  0  0  0  0  0
    7.0920   -6.1445    0.0000 H   0  0  0  0  0  0  0  0  0  0  0  0
    7.3135   -5.0937    0.0000 H   0  0  0  0  0  0  0  0  0  0  0  0
    5.0738    6.1445    0.0000 H   0  0  0  0  0  0  0  0  0  0  0  0
    4.4538    6.7645    0.0000 H   0  0  0  0  0  0  0  0  0  0  0  0
    3.8338    6.1445    0.0000 H   0  0  0  0  0  0  0  0  0  0  0  0
  1 31  2  0  0  0  0
  2  3  1  0  0  0  0
  2 13  1  0  0  0  0
  2 15  1  0  0  0  0
  3 11  2  0  0  0  0
  4 14  1  0  0  0  0
  4 24  1  0  0  0  0
  4 25  1  0  0  0  0
  5 13  2  0  0  0  0
  5 22  1  0  0  0  0
  6 25  2  0  0  0  0
  6 28  1  0  0  0  0
  7  8  1  0  0  0  0
  7 32  1  0  0  0  0
  7 34  1  0  0  0  0
  8 33  2  0  0  0  0
  9 31  1  0  0  0  0
  9 56  1  0  0  0  0
  9 57  1  0  0  0  0
 10 11  1  0  0  0  0
 10 13  1  0  0  0  0
 10 14  2  0  0  0  0
 11 12  1  0  0  0  0
 12 16  1  0  0  0  0
 12 17  1  0  0  0  0
 12 35  1  0  0  0  0
 14 19  1  0  0  0  0
 15 18  2  0  0  0  0
 15 20  1  0  0  0  0
 16 36  1  0  0  0  0
 16 37  1  0  0  0  0
 16 38  1  0  0  0  0
 17 39  1  0  0  0  0
 17 40  1  0  0  0  0
 17 41  1  0  0  0  0
 18 21  1  0  0  0  0
 18 23  1  0  0  0  0
 19 22  2  0  0  0  0
 19 42  1  0  0  0  0
 20 27  2  0  0  0  0
 20 43  1  0  0  0  0
 21 29  1  0  0  0  0
 21 44  1  0  0  0  0
 21 45  1  0  0  0  0
 22 46  1  0  0  0  0
 23 26  2  0  0  0  0
 23 47  1  0  0  0  0
 24 28  2  0  0  0  0
 24 48  1  0  0  0  0
 25 49  1  0  0  0  0
 26 27  1  0  0  0  0
 26 31  1  0  0  0  0
 27 50  1  0  0  0  0
 28 30  1  0  0  0  0
 29 51  1  0  0  0  0
 29 52  1  0  0  0  0
 29 53  1  0  0  0  0
 30 32  2  0  0  0  0
 30 33  1  0  0  0  0
 32 54  1  0  0  0  0
 33 55  1  0  0  0  0
 34 58  1  0  0  0  0
 34 59  1  0  0  0  0
 34 60  1  0  0  0  0
M  END
> <PUBCHEM_COMPOUND_CID>
67501411

> <PUBCHEM_COMPOUND_CANONICALIZED>
1

> <PUBCHEM_CACTVS_COMPLEXITY>
721

> <PUBCHEM_CACTVS_HBOND_ACCEPTOR>
5

> <PUBCHEM_CACTVS_HBOND_DONOR>
1

> <PUBCHEM_CACTVS_ROTATABLE_BOND>
6

> <PUBCHEM_CACTVS_SUBSKEYS>
AAADceB74AAAAAAAAAAAAAAAAAAAAWLFgAA8QAAAAAAAAFgB/gAAHgAYAAAADQjBnwQ/8N9MEACqAzd3dACShC81kqAd2CE4dNiIaPLA3dGUpQhoiALIyacYicCeCAACAAACAAAQAAQAAAQAAAAAAAAAAA==

> <PUBCHEM_IUPAC_OPENEYE_NAME>
3-ethyl-4-[3-isopropyl-4-[4-(1-methylpyrazol-4-yl)imidazol-1-yl]pyrazolo[3,4-b]pyridin-1-yl]benzamide

> <PUBCHEM_IUPAC_CAS_NAME>
3-ethyl-4-[4-[4-(1-methyl-4-pyrazolyl)-1-imidazolyl]-3-propan-2-yl-1-pyrazolo[3,4-b]pyridinyl]benzamide

> <PUBCHEM_IUPAC_NAME_MARKUP>
3-ethyl-4-[4-[4-(1-methylpyrazol-4-yl)imidazol-1-yl]-3-propan-2-ylpyrazolo[3,4-b]pyridin-1-yl]benzamide

> <PUBCHEM_IUPAC_NAME>
3-ethyl-4-[4-[4-(1-methylpyrazol-4-yl)imidazol-1-yl]-3-propan-2-ylpyrazolo[3,4-b]pyridin-1-yl]benzamide

> <PUBCHEM_IUPAC_SYSTEMATIC_NAME>
3-ethyl-4-[4-[4-(1-methylpyrazol-4-yl)imidazol-1-yl]-3-propan-2-yl-pyrazolo[3,4-b]pyridin-1-yl]benzamide

> <PUBCHEM_IUPAC_TRADITIONAL_NAME>
3-ethyl-4-[3-isopropyl-4-[4-(1-methylpyrazol-4-yl)imidazol-1-yl]pyrazolo[3,4-b]pyridin-1-yl]benzamide

> <PUBCHEM_IUPAC_INCHI>
InChI=1S/C25H26N8O/c1-5-16-10-17(24(26)34)6-7-20(16)33-25-22(23(30-33)15(2)3)21(8-9-27-25)32-13-19(28-14-32)18-11-29-31(4)12-18/h6-15H,5H2,1-4H3,(H2,26,34)

> <PUBCHEM_IUPAC_INCHIKEY>
NVVPMZUGELHVMH-UHFFFAOYSA-N

> <PUBCHEM_XLOGP3_AA>
3.1

> <PUBCHEM_EXACT_MASS>
454.22295748

> <PUBCHEM_MOLECULAR_FORMULA>
C25H26N8O

> <PUBCHEM_MOLECULAR_WEIGHT>
454.5

> <PUBCHEM_SMILES>
CCC1=C(C=CC(=C1)C(=O)N)N2C3=NC=CC(=C3C(=N2)C(C)C)N4C=C(N=C4)C5=CN(N=C5)C

> <PUBCHEM_CONNECTIVITY_SMILES>
CCC1=C(C=CC(=C1)C(=O)N)N2C3=NC=CC(=C3C(=N2)C(C)C)N4C=C(N=C4)C5=CN(N=C5)C

> <PUBCHEM_CACTVS_TPSA>
109

> <PUBCHEM_MONOISOTOPIC_WEIGHT>
454.22295748

> <PUBCHEM_TOTAL_CHARGE>
0

> <PUBCHEM_HEAVY_ATOM_COUNT>
34

> <PUBCHEM_ATOM_DEF_STEREO_COUNT>
0

> <PUBCHEM_ATOM_UDEF_STEREO_COUNT>
0

> <PUBCHEM_BOND_DEF_STEREO_COUNT>
0

> <PUBCHEM_BOND_UDEF_STEREO_COUNT>
0

> <PUBCHEM_ISOTOPIC_ATOM_COUNT>
0

> <PUBCHEM_COMPONENT_COUNT>
1

> <PUBCHEM_CACTVS_TAUTO_COUNT>
-1

> <PUBCHEM_COORDINATE_TYPE>
1
5
255

> <PUBCHEM_BONDANNOTATIONS>
10  11  8
10  13  8
10  14  8
14  19  8
15  18  8
15  20  8
18  23  8
19  22  8
2  13  8
2  3  8
20  27  8
23  26  8
24  28  8
26  27  8
3  11  8
30  32  8
30  33  8
4  24  8
4  25  8
5  13  8
5  22  8
6  25  8
6  28  8
7  32  8
7  8  8
8  33  8

$$$$
