5282451
  -OEChem-10172515132D

109114  0     1  0  0  0  0  0999 V2000
   13.3263   -0.5670    0.0000 Ca  0  2  0  0  0  0  0  0  0  0  0  0
    4.6660    3.4330    0.0000 F   0  0  0  0  0  0  0  0  0  0  0  0
   21.9865    3.4330    0.0000 F   0  0  0  0  0  0  0  0  0  0  0  0
    8.1301    0.4330    0.0000 O   0  0  0  0  0  0  0  0  0  0  0  0
   18.5224    0.4330    0.0000 O   0  0  0  0  0  0  0  0  0  0  0  0
    9.8622    0.4330    0.0000 O   0  0  0  0  0  0  0  0  0  0  0  0
   16.7904    0.4330    0.0000 O   0  0  0  0  0  0  0  0  0  0  0  0
   12.4603   -1.0670    0.0000 O   0  5  0  0  0  0  0  0  0  0  0  0
   11.5942    0.4330    0.0000 O   0  0  0  0  0  0  0  0  0  0  0  0
   14.1923   -1.0670    0.0000 O   0  5  0  0  0  0  0  0  0  0  0  0
   15.0583    0.4330    0.0000 O   0  0  0  0  0  0  0  0  0  0  0  0
    4.6660   -2.5670    0.0000 N   0  0  0  0  0  0  0  0  0  0  0  0
   21.9865   -2.5670    0.0000 N   0  0  0  0  0  0  0  0  0  0  0  0
    6.3981   -2.5670    0.0000 C   0  0  0  0  0  0  0  0  0  0  0  0
   20.2545   -2.5670    0.0000 C   0  0  0  0  0  0  0  0  0  0  0  0
    6.8981   -3.4330    0.0000 C   0  0  0  0  0  0  0  0  0  0  0  0
    7.3981   -2.5670    0.0000 C   0  0  0  0  0  0  0  0  0  0  0  0
   19.2545   -2.5670    0.0000 C   0  0  0  0  0  0  0  0  0  0  0  0
   19.7545   -3.4330    0.0000 C   0  0  0  0  0  0  0  0  0  0  0  0
    5.5321   -2.0670    0.0000 C   0  0  0  0  0  0  0  0  0  0  0  0
   21.1205   -2.0670    0.0000 C   0  0  0  0  0  0  0  0  0  0  0  0
    5.5321   -1.0670    0.0000 C   0  0  0  0  0  0  0  0  0  0  0  0
   21.1205   -1.0670    0.0000 C   0  0  0  0  0  0  0  0  0  0  0  0
    4.6660   -0.5670    0.0000 C   0  0  0  0  0  0  0  0  0  0  0  0
   21.9865   -0.5670    0.0000 C   0  0  0  0  0  0  0  0  0  0  0  0
    3.8000   -2.0670    0.0000 C   0  0  0  0  0  0  0  0  0  0  0  0
   22.8526   -2.0670    0.0000 C   0  0  0  0  0  0  0  0  0  0  0  0
    3.8000   -1.0670    0.0000 C   0  0  0  0  0  0  0  0  0  0  0  0
   22.8526   -1.0670    0.0000 C   0  0  0  0  0  0  0  0  0  0  0  0
    6.3981   -0.5670    0.0000 C   0  0  0  0  0  0  0  0  0  0  0  0
   20.2545   -0.5670    0.0000 C   0  0  0  0  0  0  0  0  0  0  0  0
    4.6660    0.4330    0.0000 C   0  0  0  0  0  0  0  0  0  0  0  0
   21.9865    0.4330    0.0000 C   0  0  0  0  0  0  0  0  0  0  0  0
    2.9061   -2.6017    0.0000 C   0  0  0  0  0  0  0  0  0  0  0  0
   23.7465   -2.6017    0.0000 C   0  0  0  0  0  0  0  0  0  0  0  0
    2.9061   -0.5323    0.0000 C   0  0  0  0  0  0  0  0  0  0  0  0
   23.7465   -0.5323    0.0000 C   0  0  0  0  0  0  0  0  0  0  0  0
    7.2641   -1.0670    0.0000 C   0  0  0  0  0  0  0  0  0  0  0  0
   19.3885   -1.0670    0.0000 C   0  0  0  0  0  0  0  0  0  0  0  0
    8.1301   -0.5670    0.0000 C   0  0  2  0  0  0  0  0  0  0  0  0
   18.5224   -0.5670    0.0000 C   0  0  2  0  0  0  0  0  0  0  0  0
    2.0000   -2.0878    0.0000 C   0  0  0  0  0  0  0  0  0  0  0  0
   24.6526   -2.0878    0.0000 C   0  0  0  0  0  0  0  0  0  0  0  0
    2.0000   -1.0462    0.0000 C   0  0  0  0  0  0  0  0  0  0  0  0
   24.6526   -1.0462    0.0000 C   0  0  0  0  0  0  0  0  0  0  0  0
    3.8000    0.9330    0.0000 C   0  0  0  0  0  0  0  0  0  0  0  0
    5.5321    0.9330    0.0000 C   0  0  0  0  0  0  0  0  0  0  0  0
   22.8526    0.9330    0.0000 C   0  0  0  0  0  0  0  0  0  0  0  0
   21.1205    0.9330    0.0000 C   0  0  0  0  0  0  0  0  0  0  0  0
    8.9962   -1.0670    0.0000 C   0  0  0  0  0  0  0  0  0  0  0  0
   17.6564   -1.0670    0.0000 C   0  0  0  0  0  0  0  0  0  0  0  0
    3.8000    1.9330    0.0000 C   0  0  0  0  0  0  0  0  0  0  0  0
    5.5321    1.9330    0.0000 C   0  0  0  0  0  0  0  0  0  0  0  0
   22.8526    1.9330    0.0000 C   0  0  0  0  0  0  0  0  0  0  0  0
   21.1205    1.9330    0.0000 C   0  0  0  0  0  0  0  0  0  0  0  0
    9.8622   -0.5670    0.0000 C   0  0  2  0  0  0  0  0  0  0  0  0
   16.7904   -0.5670    0.0000 C   0  0  2  0  0  0  0  0  0  0  0  0
    4.6660    2.4330    0.0000 C   0  0  0  0  0  0  0  0  0  0  0  0
   21.9865    2.4330    0.0000 C   0  0  0  0  0  0  0  0  0  0  0  0
   10.7282   -1.0670    0.0000 C   0  0  0  0  0  0  0  0  0  0  0  0
   15.9244   -1.0670    0.0000 C   0  0  0  0  0  0  0  0  0  0  0  0
   11.5942   -0.5670    0.0000 C   0  0  0  0  0  0  0  0  0  0  0  0
   15.0583   -0.5670    0.0000 C   0  0  0  0  0  0  0  0  0  0  0  0
    6.5586   -1.9681    0.0000 H   0  0  0  0  0  0  0  0  0  0  0  0
   20.0940   -1.9681    0.0000 H   0  0  0  0  0  0  0  0  0  0  0  0
    6.4231   -3.8315    0.0000 H   0  0  0  0  0  0  0  0  0  0  0  0
    7.3730   -3.8315    0.0000 H   0  0  0  0  0  0  0  0  0  0  0  0
    7.9807   -2.7790    0.0000 H   0  0  0  0  0  0  0  0  0  0  0  0
    7.5058   -1.9564    0.0000 H   0  0  0  0  0  0  0  0  0  0  0  0
   19.1468   -1.9564    0.0000 H   0  0  0  0  0  0  0  0  0  0  0  0
   18.6719   -2.7790    0.0000 H   0  0  0  0  0  0  0  0  0  0  0  0
   19.2795   -3.8315    0.0000 H   0  0  0  0  0  0  0  0  0  0  0  0
   20.2294   -3.8315    0.0000 H   0  0  0  0  0  0  0  0  0  0  0  0
    6.3981    0.0530    0.0000 H   0  0  0  0  0  0  0  0  0  0  0  0
   20.2545    0.0530    0.0000 H   0  0  0  0  0  0  0  0  0  0  0  0
    2.9132   -3.2216    0.0000 H   0  0  0  0  0  0  0  0  0  0  0  0
   23.7393   -3.2216    0.0000 H   0  0  0  0  0  0  0  0  0  0  0  0
    2.9132    0.0876    0.0000 H   0  0  0  0  0  0  0  0  0  0  0  0
   23.7393    0.0876    0.0000 H   0  0  0  0  0  0  0  0  0  0  0  0
    7.2641   -1.6870    0.0000 H   0  0  0  0  0  0  0  0  0  0  0  0
   19.3885   -1.6870    0.0000 H   0  0  0  0  0  0  0  0  0  0  0  0
    7.5932   -0.2570    0.0000 H   0  0  0  0  0  0  0  0  0  0  0  0
   17.9855   -0.2570    0.0000 H   0  0  0  0  0  0  0  0  0  0  0  0
    1.4643   -2.3999    0.0000 H   0  0  0  0  0  0  0  0  0  0  0  0
   25.1883   -2.3999    0.0000 H   0  0  0  0  0  0  0  0  0  0  0  0
    1.4643   -0.7341    0.0000 H   0  0  0  0  0  0  0  0  0  0  0  0
   25.1883   -0.7341    0.0000 H   0  0  0  0  0  0  0  0  0  0  0  0
    3.2631    0.6230    0.0000 H   0  0  0  0  0  0  0  0  0  0  0  0
    6.0690    0.6230    0.0000 H   0  0  0  0  0  0  0  0  0  0  0  0
   23.3895    0.6230    0.0000 H   0  0  0  0  0  0  0  0  0  0  0  0
   20.5836    0.6230    0.0000 H   0  0  0  0  0  0  0  0  0  0  0  0
    8.5976   -1.5419    0.0000 H   0  0  0  0  0  0  0  0  0  0  0  0
    9.3947   -1.5419    0.0000 H   0  0  0  0  0  0  0  0  0  0  0  0
   17.2579   -1.5419    0.0000 H   0  0  0  0  0  0  0  0  0  0  0  0
   18.0549   -1.5419    0.0000 H   0  0  0  0  0  0  0  0  0  0  0  0
    3.2631    2.2430    0.0000 H   0  0  0  0  0  0  0  0  0  0  0  0
    6.0690    2.2430    0.0000 H   0  0  0  0  0  0  0  0  0  0  0  0
   23.3895    2.2430    0.0000 H   0  0  0  0  0  0  0  0  0  0  0  0
   20.5836    2.2430    0.0000 H   0  0  0  0  0  0  0  0  0  0  0  0
    9.3253   -0.2570    0.0000 H   0  0  0  0  0  0  0  0  0  0  0  0
   17.3273   -0.2570    0.0000 H   0  0  0  0  0  0  0  0  0  0  0  0
    8.6671    0.7430    0.0000 H   0  0  0  0  0  0  0  0  0  0  0  0
   19.0594    0.7430    0.0000 H   0  0  0  0  0  0  0  0  0  0  0  0
   10.3297   -1.5419    0.0000 H   0  0  0  0  0  0  0  0  0  0  0  0
   11.1267   -1.5419    0.0000 H   0  0  0  0  0  0  0  0  0  0  0  0
   15.5258   -1.5419    0.0000 H   0  0  0  0  0  0  0  0  0  0  0  0
   16.3229   -1.5419    0.0000 H   0  0  0  0  0  0  0  0  0  0  0  0
   10.3991    0.7430    0.0000 H   0  0  0  0  0  0  0  0  0  0  0  0
   17.3273    0.7430    0.0000 H   0  0  0  0  0  0  0  0  0  0  0  0
  2 58  1  0  0  0  0
  3 59  1  0  0  0  0
 40  4  1  1  0  0  0
  4102  1  0  0  0  0
 41  5  1  6  0  0  0
  5103  1  0  0  0  0
 56  6  1  1  0  0  0
  6108  1  0  0  0  0
 57  7  1  6  0  0  0
  7109  1  0  0  0  0
  8 62  1  0  0  0  0
  9 62  2  0  0  0  0
 10 63  1  0  0  0  0
 11 63  2  0  0  0  0
 12 20  2  0  0  0  0
 12 26  1  0  0  0  0
 13 21  2  0  0  0  0
 13 27  1  0  0  0  0
 14 16  1  0  0  0  0
 14 17  1  0  0  0  0
 14 20  1  0  0  0  0
 14 64  1  0  0  0  0
 15 18  1  0  0  0  0
 15 19  1  0  0  0  0
 15 21  1  0  0  0  0
 15 65  1  0  0  0  0
 16 17  1  0  0  0  0
 16 66  1  0  0  0  0
 16 67  1  0  0  0  0
 17 68  1  0  0  0  0
 17 69  1  0  0  0  0
 18 19  1  0  0  0  0
 18 70  1  0  0  0  0
 18 71  1  0  0  0  0
 19 72  1  0  0  0  0
 19 73  1  0  0  0  0
 20 22  1  0  0  0  0
 21 23  1  0  0  0  0
 22 24  2  0  0  0  0
 22 30  1  0  0  0  0
 23 25  2  0  0  0  0
 23 31  1  0  0  0  0
 24 28  1  0  0  0  0
 24 32  1  0  0  0  0
 25 29  1  0  0  0  0
 25 33  1  0  0  0  0
 26 28  1  0  0  0  0
 26 34  2  0  0  0  0
 27 29  1  0  0  0  0
 27 35  2  0  0  0  0
 28 36  2  0  0  0  0
 29 37  2  0  0  0  0
 30 38  2  0  0  0  0
 30 74  1  0  0  0  0
 31 39  2  0  0  0  0
 31 75  1  0  0  0  0
 32 46  2  0  0  0  0
 32 47  1  0  0  0  0
 33 48  2  0  0  0  0
 33 49  1  0  0  0  0
 34 42  1  0  0  0  0
 34 76  1  0  0  0  0
 35 43  1  0  0  0  0
 35 77  1  0  0  0  0
 36 44  1  0  0  0  0
 36 78  1  0  0  0  0
 37 45  1  0  0  0  0
 37 79  1  0  0  0  0
 38 40  1  0  0  0  0
 38 80  1  0  0  0  0
 39 41  1  0  0  0  0
 39 81  1  0  0  0  0
 40 50  1  0  0  0  0
 40 82  1  0  0  0  0
 41 51  1  0  0  0  0
 41 83  1  0  0  0  0
 42 44  2  0  0  0  0
 42 84  1  0  0  0  0
 43 45  2  0  0  0  0
 43 85  1  0  0  0  0
 44 86  1  0  0  0  0
 45 87  1  0  0  0  0
 46 52  1  0  0  0  0
 46 88  1  0  0  0  0
 47 53  2  0  0  0  0
 47 89  1  0  0  0  0
 48 54  1  0  0  0  0
 48 90  1  0  0  0  0
 49 55  2  0  0  0  0
 49 91  1  0  0  0  0
 50 56  1  0  0  0  0
 50 92  1  0  0  0  0
 50 93  1  0  0  0  0
 51 57  1  0  0  0  0
 51 94  1  0  0  0  0
 51 95  1  0  0  0  0
 52 58  2  0  0  0  0
 52 96  1  0  0  0  0
 53 58  1  0  0  0  0
 53 97  1  0  0  0  0
 54 59  2  0  0  0  0
 54 98  1  0  0  0  0
 55 59  1  0  0  0  0
 55 99  1  0  0  0  0
 56 60  1  0  0  0  0
 56100  1  0  0  0  0
 57 61  1  0  0  0  0
 57101  1  0  0  0  0
 60 62  1  0  0  0  0
 60104  1  0  0  0  0
 60105  1  0  0  0  0
 61 63  1  0  0  0  0
 61106  1  0  0  0  0
 61107  1  0  0  0  0
M  CHG  3   1   2   8  -1  10  -1
M  END
> <PUBCHEM_COMPOUND_CID>
5282451

> <PUBCHEM_COMPOUND_CANONICALIZED>
1

> <PUBCHEM_CACTVS_COMPLEXITY>
626

> <PUBCHEM_CACTVS_HBOND_ACCEPTOR>
12

> <PUBCHEM_CACTVS_HBOND_DONOR>
4

> <PUBCHEM_CACTVS_ROTATABLE_BOND>
14

> <PUBCHEM_CACTVS_SUBSKEYS>
AAADcfB/PYAAAAgAAAAAAAAAGDAAAAAAAAA8eMGCAAAAAACx/gAAHwAACAAADRyhngowyPIIEgCoAyTyTACCgCAhAiAImCEwZJgINPbAkZGEcAhloADI2AeY7MROgAAAAAACAAAAAAAAAAQAAAAAAAAAAA==

> <PUBCHEM_IUPAC_OPENEYE_NAME>
calcium bis((E,3R,5S)-7-[2-cyclopropyl-4-(4-fluorophenyl)-3-quinolyl]-3,5-dihydroxy-hept-6-enoate)

> <PUBCHEM_IUPAC_CAS_NAME>
calcium bis((E,3R,5S)-7-[2-cyclopropyl-4-(4-fluorophenyl)-3-quinolinyl]-3,5-dihydroxy-6-heptenoate)

> <PUBCHEM_IUPAC_NAME_MARKUP>
calcium bis((<I>E</I>,3<I>R</I>,5<I>S</I>)-7-[2-cyclopropyl-4-(4-fluorophenyl)quinolin-3-yl]-3,5-dihydroxyhept-6-enoate)

> <PUBCHEM_IUPAC_NAME>
calcium bis((E,3R,5S)-7-[2-cyclopropyl-4-(4-fluorophenyl)quinolin-3-yl]-3,5-dihydroxyhept-6-enoate)

> <PUBCHEM_IUPAC_SYSTEMATIC_NAME>
calcium bis((E,3R,5S)-7-[2-cyclopropyl-4-(4-fluorophenyl)quinolin-3-yl]-3,5-bis(oxidanyl)hept-6-enoate)

> <PUBCHEM_IUPAC_TRADITIONAL_NAME>
calcium bis((E,3R,5S)-7-[2-cyclopropyl-4-(4-fluorophenyl)-3-quinolyl]-3,5-dihydroxy-hept-6-enoate)

> <PUBCHEM_IUPAC_INCHI>
InChI=1S/2C25H24FNO4.Ca/c2*26-17-9-7-15(8-10-17)24-20-3-1-2-4-22(20)27-25(16-5-6-16)21(24)12-11-18(28)13-19(29)14-23(30)31;/h2*1-4,7-12,16,18-19,28-29H,5-6,13-14H2,(H,30,31);/q;;+2/p-2/b2*12-11+;/t2*18-,19-;/m11./s1

> <PUBCHEM_IUPAC_INCHIKEY>
RHGYHLPFVJEAOC-FFNUKLMVSA-L

> <PUBCHEM_EXACT_MASS>
880.2848136

> <PUBCHEM_MOLECULAR_FORMULA>
C50H46CaF2N2O8

> <PUBCHEM_MOLECULAR_WEIGHT>
881.0

> <PUBCHEM_SMILES>
C1C(C1)C2=NC3=CC=CC=C3C(=C2/C=C/[C@@H](O)C[C@@H](O)CC(=O)[O-])C4=CC=C(C=C4)F.C1C(C1)C2=NC3=CC=CC=C3C(=C2/C=C/[C@@H](O)C[C@@H](O)CC(=O)[O-])C4=CC=C(C=C4)F.[Ca+2]

> <PUBCHEM_CONNECTIVITY_SMILES>
C1CC1C2=NC3=CC=CC=C3C(=C2C=CC(CC(CC(=O)[O-])O)O)C4=CC=C(C=C4)F.C1CC1C2=NC3=CC=CC=C3C(=C2C=CC(CC(CC(=O)[O-])O)O)C4=CC=C(C=C4)F.[Ca+2]

> <PUBCHEM_CACTVS_TPSA>
187

> <PUBCHEM_MONOISOTOPIC_WEIGHT>
880.2848136

> <PUBCHEM_TOTAL_CHARGE>
0

> <PUBCHEM_HEAVY_ATOM_COUNT>
63

> <PUBCHEM_ATOM_DEF_STEREO_COUNT>
4

> <PUBCHEM_ATOM_UDEF_STEREO_COUNT>
0

> <PUBCHEM_BOND_DEF_STEREO_COUNT>
2

> <PUBCHEM_BOND_UDEF_STEREO_COUNT>
0

> <PUBCHEM_ISOTOPIC_ATOM_COUNT>
0

> <PUBCHEM_COMPONENT_COUNT>
3

> <PUBCHEM_CACTVS_TAUTO_COUNT>
-1

> <PUBCHEM_COORDINATE_TYPE>
1
5
255

> <PUBCHEM_BONDANNOTATIONS>
12  20  8
12  26  8
13  21  8
13  27  8
20  22  8
21  23  8
22  24  8
23  25  8
24  28  8
25  29  8
26  28  8
26  34  8
27  29  8
27  35  8
28  36  8
29  37  8
32  46  8
32  47  8
33  48  8
33  49  8
34  42  8
35  43  8
36  44  8
37  45  8
40  4  5
42  44  8
43  45  8
46  52  8
47  53  8
48  54  8
49  55  8
41  5  6
52  58  8
53  58  8
54  59  8
55  59  8
56  6  5
57  7  6

$$$$
