16759173
  -OEChem-10172515102D

 66 66  0     1  0  0  0  0  0999 V2000
    8.8749   -4.8471    0.0000 Na  0  3  0  0  0  0  0  0  0  0  0  0
    3.7321    1.2271    0.0000 O   0  0  0  0  0  0  0  0  0  0  0  0
    2.0000    4.2271    0.0000 O   0  0  0  0  0  0  0  0  0  0  0  0
    5.4573   -0.8073    0.0000 O   0  0  0  0  0  0  0  0  0  0  0  0
    2.0000    1.2271    0.0000 O   0  0  0  0  0  0  0  0  0  0  0  0
    6.3060   -2.3173    0.0000 O   0  0  0  0  0  0  0  0  0  0  0  0
    8.8865   -3.8472    0.0000 O   0  5  0  0  0  0  0  0  0  0  0  0
    7.1546   -3.8272    0.0000 O   0  0  0  0  0  0  0  0  0  0  0  0
    4.5981    2.7271    0.0000 C   0  0  1  0  0  0  0  0  0  0  0  0
    5.4920    2.1925    0.0000 C   0  0  2  0  0  0  0  0  0  0  0  0
    3.7321    2.2271    0.0000 C   0  0  2  0  0  0  0  0  0  0  0  0
    6.3981    2.7063    0.0000 C   0  0  2  0  0  0  0  0  0  0  0  0
    5.4805    1.1925    0.0000 C   0  0  0  0  0  0  0  0  0  0  0  0
    4.5981    3.7271    0.0000 C   0  0  0  0  0  0  0  0  0  0  0  0
    2.8660    2.7271    0.0000 C   0  0  0  0  0  0  0  0  0  0  0  0
    2.8660    3.7271    0.0000 C   0  0  1  0  0  0  0  0  0  0  0  0
    6.3981    3.7479    0.0000 C   0  0  0  0  0  0  0  0  0  0  0  0
    6.3406    0.6826    0.0000 C   0  0  0  0  0  0  0  0  0  0  0  0
    3.7321    4.2271    0.0000 C   0  0  0  0  0  0  0  0  0  0  0  0
    5.4920    4.2618    0.0000 C   0  0  0  0  0  0  0  0  0  0  0  0
    7.2622    2.2030    0.0000 C   0  0  0  0  0  0  0  0  0  0  0  0
    6.3291   -0.3174    0.0000 C   0  0  2  0  0  0  0  0  0  0  0  0
    7.1893   -0.8274    0.0000 C   0  0  0  0  0  0  0  0  0  0  0  0
    2.8660    0.7271    0.0000 C   0  0  0  0  0  0  0  0  0  0  0  0
    7.1777   -1.8273    0.0000 C   0  0  2  0  0  0  0  0  0  0  0  0
    2.8660   -0.2729    0.0000 C   0  0  2  0  0  0  0  0  0  0  0  0
    8.0379   -2.3373    0.0000 C   0  0  0  0  0  0  0  0  0  0  0  0
    2.0000   -0.7729    0.0000 C   0  0  0  0  0  0  0  0  0  0  0  0
    3.7321   -0.7729    0.0000 C   0  0  0  0  0  0  0  0  0  0  0  0
    2.0000   -1.7729    0.0000 C   0  0  0  0  0  0  0  0  0  0  0  0
    8.0263   -3.3372    0.0000 C   0  0  0  0  0  0  0  0  0  0  0  0
    5.3375    3.1464    0.0000 H   0  0  0  0  0  0  0  0  0  0  0  0
    4.9510    1.8897    0.0000 H   0  0  0  0  0  0  0  0  0  0  0  0
    4.2690    1.9171    0.0000 H   0  0  0  0  0  0  0  0  0  0  0  0
    6.9356    3.0153    0.0000 H   0  0  0  0  0  0  0  0  0  0  0  0
    4.8712    1.3073    0.0000 H   0  0  0  0  0  0  0  0  0  0  0  0
    5.2617    0.6124    0.0000 H   0  0  0  0  0  0  0  0  0  0  0  0
    2.2554    2.8348    0.0000 H   0  0  0  0  0  0  0  0  0  0  0  0
    2.6540    2.1445    0.0000 H   0  0  0  0  0  0  0  0  0  0  0  0
    2.8660    4.3471    0.0000 H   0  0  0  0  0  0  0  0  0  0  0  0
    6.9338    4.0600    0.0000 H   0  0  0  0  0  0  0  0  0  0  0  0
    6.9499    0.5678    0.0000 H   0  0  0  0  0  0  0  0  0  0  0  0
    6.5594    1.2627    0.0000 H   0  0  0  0  0  0  0  0  0  0  0  0
    3.7321    4.8471    0.0000 H   0  0  0  0  0  0  0  0  0  0  0  0
    5.4849    4.8817    0.0000 H   0  0  0  0  0  0  0  0  0  0  0  0
    6.9501    1.6672    0.0000 H   0  0  0  0  0  0  0  0  0  0  0  0
    7.7979    1.8909    0.0000 H   0  0  0  0  0  0  0  0  0  0  0  0
    7.5742    2.7387    0.0000 H   0  0  0  0  0  0  0  0  0  0  0  0
    5.7958   -0.0012    0.0000 H   0  0  0  0  0  0  0  0  0  0  0  0
    7.7986   -0.9421    0.0000 H   0  0  0  0  0  0  0  0  0  0  0  0
    7.4080   -0.2472    0.0000 H   0  0  0  0  0  0  0  0  0  0  0  0
    2.0000    4.8471    0.0000 H   0  0  0  0  0  0  0  0  0  0  0  0
    6.6444   -1.5111    0.0000 H   0  0  0  0  0  0  0  0  0  0  0  0
    2.8660   -0.8929    0.0000 H   0  0  0  0  0  0  0  0  0  0  0  0
    5.4502   -1.4273    0.0000 H   0  0  0  0  0  0  0  0  0  0  0  0
    8.6472   -2.4520    0.0000 H   0  0  0  0  0  0  0  0  0  0  0  0
    8.2567   -1.7572    0.0000 H   0  0  0  0  0  0  0  0  0  0  0  0
    1.7880   -0.1903    0.0000 H   0  0  0  0  0  0  0  0  0  0  0  0
    1.3894   -0.8805    0.0000 H   0  0  0  0  0  0  0  0  0  0  0  0
    3.4221   -1.3098    0.0000 H   0  0  0  0  0  0  0  0  0  0  0  0
    4.2690   -1.0829    0.0000 H   0  0  0  0  0  0  0  0  0  0  0  0
    4.0421   -0.2359    0.0000 H   0  0  0  0  0  0  0  0  0  0  0  0
    6.2988   -2.9372    0.0000 H   0  0  0  0  0  0  0  0  0  0  0  0
    1.3800   -1.7729    0.0000 H   0  0  0  0  0  0  0  0  0  0  0  0
    2.0000   -2.3929    0.0000 H   0  0  0  0  0  0  0  0  0  0  0  0
    2.6200   -1.7729    0.0000 H   0  0  0  0  0  0  0  0  0  0  0  0
 11  2  1  1  0  0  0
  2 24  1  0  0  0  0
 16  3  1  6  0  0  0
  3 52  1  0  0  0  0
 22  4  1  6  0  0  0
  4 55  1  0  0  0  0
  5 24  2  0  0  0  0
 25  6  1  6  0  0  0
  6 63  1  0  0  0  0
  7 31  1  0  0  0  0
  8 31  2  0  0  0  0
  9 10  1  0  0  0  0
  9 11  1  0  0  0  0
  9 14  1  0  0  0  0
  9 32  1  6  0  0  0
 10 12  1  0  0  0  0
 10 13  1  6  0  0  0
 10 33  1  0  0  0  0
 11 15  1  0  0  0  0
 11 34  1  0  0  0  0
 12 17  1  0  0  0  0
 12 21  1  6  0  0  0
 12 35  1  0  0  0  0
 13 18  1  0  0  0  0
 13 36  1  0  0  0  0
 13 37  1  0  0  0  0
 14 19  2  0  0  0  0
 14 20  1  0  0  0  0
 15 16  1  0  0  0  0
 15 38  1  0  0  0  0
 15 39  1  0  0  0  0
 16 19  1  0  0  0  0
 16 40  1  0  0  0  0
 17 20  2  0  0  0  0
 17 41  1  0  0  0  0
 18 22  1  0  0  0  0
 18 42  1  0  0  0  0
 18 43  1  0  0  0  0
 19 44  1  0  0  0  0
 20 45  1  0  0  0  0
 21 46  1  0  0  0  0
 21 47  1  0  0  0  0
 21 48  1  0  0  0  0
 22 23  1  0  0  0  0
 22 49  1  0  0  0  0
 23 25  1  0  0  0  0
 23 50  1  0  0  0  0
 23 51  1  0  0  0  0
 24 26  1  0  0  0  0
 25 27  1  0  0  0  0
 25 53  1  0  0  0  0
 26 28  1  0  0  0  0
 26 29  1  1  0  0  0
 26 54  1  0  0  0  0
 27 31  1  0  0  0  0
 27 56  1  0  0  0  0
 27 57  1  0  0  0  0
 28 30  1  0  0  0  0
 28 58  1  0  0  0  0
 28 59  1  0  0  0  0
 29 60  1  0  0  0  0
 29 61  1  0  0  0  0
 29 62  1  0  0  0  0
 30 64  1  0  0  0  0
 30 65  1  0  0  0  0
 30 66  1  0  0  0  0
M  CHG  2   1   1   7  -1
M  END
> <PUBCHEM_COMPOUND_CID>
16759173

> <PUBCHEM_COMPOUND_CANONICALIZED>
1

> <PUBCHEM_CACTVS_COMPLEXITY>
662

> <PUBCHEM_CACTVS_HBOND_ACCEPTOR>
7

> <PUBCHEM_CACTVS_HBOND_DONOR>
3

> <PUBCHEM_CACTVS_ROTATABLE_BOND>
11

> <PUBCHEM_CACTVS_SUBSKEYS>
AAADcfB4OCAAAAAAAAAAAAAAAAAAAAAAAAAgQAAAAAAAAACAAAAAGgAACAAADRSggAICCAAABgCIAiDSCAAAAAAgAAAICAEAAAgIFBYAAQACUAAF4AAIkAOI7PTOgAAAAAAAAAAAAAAAAAAAAAAAAAAAAA==

> <PUBCHEM_IUPAC_OPENEYE_NAME>
sodium (3R,5R)-7-[(1S,2S,6S,8S,8aR)-6-hydroxy-2-methyl-8-[(2S)-2-methylbutanoyl]oxy-1,2,6,7,8,8a-hexahydronaphthalen-1-yl]-3,5-dihydroxy-heptanoate

> <PUBCHEM_IUPAC_CAS_NAME>
sodium (3R,5R)-7-[(1S,2S,6S,8S,8aR)-6-hydroxy-2-methyl-8-[(2S)-2-methyl-1-oxobutoxy]-1,2,6,7,8,8a-hexahydronaphthalen-1-yl]-3,5-dihydroxyheptanoate

> <PUBCHEM_IUPAC_NAME_MARKUP>
sodium (3<I>R</I>,5<I>R</I>)-7-[(1<I>S</I>,2<I>S</I>,6<I>S</I>,8<I>S</I>,8<I>a</I><I>R</I>)-6-hydroxy-2-methyl-8-[(2<I>S</I>)-2-methylbutanoyl]oxy-1,2,6,7,8,8<I>a</I>-hexahydronaphthalen-1-yl]-3,5-dihydroxyheptanoate

> <PUBCHEM_IUPAC_NAME>
sodium (3R,5R)-7-[(1S,2S,6S,8S,8aR)-6-hydroxy-2-methyl-8-[(2S)-2-methylbutanoyl]oxy-1,2,6,7,8,8a-hexahydronaphthalen-1-yl]-3,5-dihydroxyheptanoate

> <PUBCHEM_IUPAC_SYSTEMATIC_NAME>
sodium (3R,5R)-7-[(1S,2S,6S,8S,8aR)-2-methyl-8-[(2S)-2-methylbutanoyl]oxy-6-oxidanyl-1,2,6,7,8,8a-hexahydronaphthalen-1-yl]-3,5-bis(oxidanyl)heptanoate

> <PUBCHEM_IUPAC_TRADITIONAL_NAME>
sodium (3R,5R)-7-[(1S,2S,6S,8S,8aR)-6-hydroxy-2-methyl-8-[(2S)-2-methylbutanoyl]oxy-1,2,6,7,8,8a-hexahydronaphthalen-1-yl]-3,5-dihydroxy-enanthate

> <PUBCHEM_IUPAC_INCHI>
InChI=1S/C23H36O7.Na/c1-4-13(2)23(29)30-20-11-17(25)9-15-6-5-14(3)19(22(15)20)8-7-16(24)10-18(26)12-21(27)28;/h5-6,9,13-14,16-20,22,24-26H,4,7-8,10-12H2,1-3H3,(H,27,28);/q;+1/p-1/t13-,14-,16+,17+,18+,19-,20-,22-;/m0./s1

> <PUBCHEM_IUPAC_INCHIKEY>
VWBQYTRBTXKKOG-IYNICTALSA-M

> <PUBCHEM_EXACT_MASS>
446.22804773

> <PUBCHEM_MOLECULAR_FORMULA>
C23H35NaO7

> <PUBCHEM_MOLECULAR_WEIGHT>
446.5

> <PUBCHEM_SMILES>
CC[C@H](C)C(=O)O[C@H]1C[C@@H](C=C2[C@H]1[C@H]([C@H](C=C2)C)CC[C@H](C[C@H](CC(=O)[O-])O)O)O.[Na+]

> <PUBCHEM_CONNECTIVITY_SMILES>
CCC(C)C(=O)OC1CC(C=C2C1C(C(C=C2)C)CCC(CC(CC(=O)[O-])O)O)O.[Na+]

> <PUBCHEM_CACTVS_TPSA>
127

> <PUBCHEM_MONOISOTOPIC_WEIGHT>
446.22804773

> <PUBCHEM_TOTAL_CHARGE>
0

> <PUBCHEM_HEAVY_ATOM_COUNT>
31

> <PUBCHEM_ATOM_DEF_STEREO_COUNT>
8

> <PUBCHEM_ATOM_UDEF_STEREO_COUNT>
0

> <PUBCHEM_BOND_DEF_STEREO_COUNT>
0

> <PUBCHEM_BOND_UDEF_STEREO_COUNT>
0

> <PUBCHEM_ISOTOPIC_ATOM_COUNT>
0

> <PUBCHEM_COMPONENT_COUNT>
2

> <PUBCHEM_CACTVS_TAUTO_COUNT>
-1

> <PUBCHEM_NONSTANDARDBOND>
1  7  7

> <PUBCHEM_COORDINATE_TYPE>
1
5
255

> <PUBCHEM_BONDANNOTATIONS>
10  13  6
12  21  6
11  2  5
26  29  5
16  3  6
22  4  6
25  6  6
9  32  6

$$$$
