66068
  -OEChem-10172515112D

 40 39  0     0  0  0  0  0  0999 V2000
    6.6210    4.4650    0.0000 Cl  0  0  0  0  0  0  0  0  0  0  0  0
    0.5369    4.8100    0.0000 O   0  0  0  0  0  0  0  0  0  0  0  0
    3.1350    7.3100    0.0000 N   0  0  0  0  0  0  0  0  0  0  0  0
    2.2690    4.8100    0.0000 N   0  0  0  0  0  0  0  0  0  0  0  0
    1.4030    0.3100    0.0000 N   0  0  0  0  0  0  0  0  0  0  0  0
    3.1350    6.3100    0.0000 C   0  0  0  0  0  0  0  0  0  0  0  0
    4.0010    7.8100    0.0000 C   0  0  0  0  0  0  0  0  0  0  0  0
    2.2690    7.8100    0.0000 C   0  0  0  0  0  0  0  0  0  0  0  0
    2.2690    5.8100    0.0000 C   0  0  0  0  0  0  0  0  0  0  0  0
    4.0010    8.8100    0.0000 C   0  0  0  0  0  0  0  0  0  0  0  0
    2.2690    8.8100    0.0000 C   0  0  0  0  0  0  0  0  0  0  0  0
    1.4030    4.3100    0.0000 C   0  0  0  0  0  0  0  0  0  0  0  0
    1.4030    3.3100    0.0000 C   0  0  0  0  0  0  0  0  0  0  0  0
    2.2690    2.8100    0.0000 C   0  0  0  0  0  0  0  0  0  0  0  0
    0.5369    2.8100    0.0000 C   0  0  0  0  0  0  0  0  0  0  0  0
    2.2690    1.8100    0.0000 C   0  0  0  0  0  0  0  0  0  0  0  0
    0.5369    1.8100    0.0000 C   0  0  0  0  0  0  0  0  0  0  0  0
    1.4030    1.3100    0.0000 C   0  0  0  0  0  0  0  0  0  0  0  0
    3.3471    5.7274    0.0000 H   0  0  0  0  0  0  0  0  0  0  0  0
    3.7456    6.4177    0.0000 H   0  0  0  0  0  0  0  0  0  0  0  0
    4.2131    7.2274    0.0000 H   0  0  0  0  0  0  0  0  0  0  0  0
    4.6116    7.9177    0.0000 H   0  0  0  0  0  0  0  0  0  0  0  0
    1.6584    7.9177    0.0000 H   0  0  0  0  0  0  0  0  0  0  0  0
    2.0569    7.2274    0.0000 H   0  0  0  0  0  0  0  0  0  0  0  0
    2.0569    6.3926    0.0000 H   0  0  0  0  0  0  0  0  0  0  0  0
    1.6584    5.7023    0.0000 H   0  0  0  0  0  0  0  0  0  0  0  0
    4.6210    8.8100    0.0000 H   0  0  0  0  0  0  0  0  0  0  0  0
    4.0010    9.4300    0.0000 H   0  0  0  0  0  0  0  0  0  0  0  0
    3.3810    8.8100    0.0000 H   0  0  0  0  0  0  0  0  0  0  0  0
    2.8890    8.8100    0.0000 H   0  0  0  0  0  0  0  0  0  0  0  0
    2.2690    9.4300    0.0000 H   0  0  0  0  0  0  0  0  0  0  0  0
    1.6490    8.8100    0.0000 H   0  0  0  0  0  0  0  0  0  0  0  0
    2.8059    4.5000    0.0000 H   0  0  0  0  0  0  0  0  0  0  0  0
    2.8059    3.1200    0.0000 H   0  0  0  0  0  0  0  0  0  0  0  0
    0.0000    3.1200    0.0000 H   0  0  0  0  0  0  0  0  0  0  0  0
    2.8059    1.5000    0.0000 H   0  0  0  0  0  0  0  0  0  0  0  0
    0.0000    1.5000    0.0000 H   0  0  0  0  0  0  0  0  0  0  0  0
    0.8660    0.0000    0.0000 H   0  0  0  0  0  0  0  0  0  0  0  0
    1.9399    0.0000    0.0000 H   0  0  0  0  0  0  0  0  0  0  0  0
    7.6210    4.4650    0.0000 H   0  0  0  0  0  0  0  0  0  0  0  0
  1 40  1  0  0  0  0
  2 12  2  0  0  0  0
  3  6  1  0  0  0  0
  3  7  1  0  0  0  0
  3  8  1  0  0  0  0
  4  9  1  0  0  0  0
  4 12  1  0  0  0  0
  4 33  1  0  0  0  0
  5 18  1  0  0  0  0
  5 38  1  0  0  0  0
  5 39  1  0  0  0  0
  6  9  1  0  0  0  0
  6 19  1  0  0  0  0
  6 20  1  0  0  0  0
  7 10  1  0  0  0  0
  7 21  1  0  0  0  0
  7 22  1  0  0  0  0
  8 11  1  0  0  0  0
  8 23  1  0  0  0  0
  8 24  1  0  0  0  0
  9 25  1  0  0  0  0
  9 26  1  0  0  0  0
 10 27  1  0  0  0  0
 10 28  1  0  0  0  0
 10 29  1  0  0  0  0
 11 30  1  0  0  0  0
 11 31  1  0  0  0  0
 11 32  1  0  0  0  0
 12 13  1  0  0  0  0
 13 14  2  0  0  0  0
 13 15  1  0  0  0  0
 14 16  1  0  0  0  0
 14 34  1  0  0  0  0
 15 17  2  0  0  0  0
 15 35  1  0  0  0  0
 16 18  2  0  0  0  0
 16 36  1  0  0  0  0
 17 18  1  0  0  0  0
 17 37  1  0  0  0  0
M  END
> <PUBCHEM_COMPOUND_CID>
66068

> <PUBCHEM_COMPOUND_CANONICALIZED>
1

> <PUBCHEM_CACTVS_COMPLEXITY>
221

> <PUBCHEM_CACTVS_HBOND_ACCEPTOR>
3

> <PUBCHEM_CACTVS_HBOND_DONOR>
3

> <PUBCHEM_CACTVS_ROTATABLE_BOND>
6

> <PUBCHEM_CACTVS_SUBSKEYS>
AAADceBzIAAEAAAAAAAAAAAAAAAAAAAAAAAwAAAAAAAAAAABAAAAHgAQAAAADAjBmAQywIPAAACIAiVSUACCAAAkAgAIiIEIZMgIYDKAlZGUIQhglgCIyYcYiQCeCAAAAAAAAAAQAAAAAAAAAAAAAAAAAA==

> <PUBCHEM_IUPAC_OPENEYE_NAME>
4-amino-N-[2-(diethylamino)ethyl]benzamide;hydrochloride

> <PUBCHEM_IUPAC_CAS_NAME>
4-amino-N-[2-(diethylamino)ethyl]benzamide;hydrochloride

> <PUBCHEM_IUPAC_NAME_MARKUP>
4-amino-<I>N</I>-[2-(diethylamino)ethyl]benzamide;hydrochloride

> <PUBCHEM_IUPAC_NAME>
4-amino-N-[2-(diethylamino)ethyl]benzamide;hydrochloride

> <PUBCHEM_IUPAC_SYSTEMATIC_NAME>
4-azanyl-N-[2-(diethylamino)ethyl]benzamide;hydrochloride

> <PUBCHEM_IUPAC_TRADITIONAL_NAME>
4-amino-N-[2-(diethylamino)ethyl]benzamide;hydrochloride

> <PUBCHEM_IUPAC_INCHI>
InChI=1S/C13H21N3O.ClH/c1-3-16(4-2)10-9-15-13(17)11-5-7-12(14)8-6-11;/h5-8H,3-4,9-10,14H2,1-2H3,(H,15,17);1H

> <PUBCHEM_IUPAC_INCHIKEY>
ABTXGJFUQRCPNH-UHFFFAOYSA-N

> <PUBCHEM_EXACT_MASS>
271.1451400

> <PUBCHEM_MOLECULAR_FORMULA>
C13H22ClN3O

> <PUBCHEM_MOLECULAR_WEIGHT>
271.78

> <PUBCHEM_SMILES>
CCN(CC)CCNC(=O)C1=CC=C(C=C1)N.Cl

> <PUBCHEM_CONNECTIVITY_SMILES>
CCN(CC)CCNC(=O)C1=CC=C(C=C1)N.Cl

> <PUBCHEM_CACTVS_TPSA>
58.4

> <PUBCHEM_MONOISOTOPIC_WEIGHT>
271.1451400

> <PUBCHEM_TOTAL_CHARGE>
0

> <PUBCHEM_HEAVY_ATOM_COUNT>
18

> <PUBCHEM_ATOM_DEF_STEREO_COUNT>
0

> <PUBCHEM_ATOM_UDEF_STEREO_COUNT>
0

> <PUBCHEM_BOND_DEF_STEREO_COUNT>
0

> <PUBCHEM_BOND_UDEF_STEREO_COUNT>
0

> <PUBCHEM_ISOTOPIC_ATOM_COUNT>
0

> <PUBCHEM_COMPONENT_COUNT>
2

> <PUBCHEM_CACTVS_TAUTO_COUNT>
-1

> <PUBCHEM_COORDINATE_TYPE>
1
5
255

> <PUBCHEM_BONDANNOTATIONS>
13  14  8
13  15  8
14  16  8
15  17  8
16  18  8
17  18  8

$$$$
