11570805
  -OEChem-10172515072D

 78 79  0     0  0  0  0  0  0999 V2000
    9.0084    1.0369    0.0000 S   0  0  0  0  0  0  0  0  0  0  0  0
    1.4030    5.9940    0.0000 S   0  0  0  0  0  0  0  0  0  0  0  0
    6.0290   11.8171    0.0000 F   0  0  0  0  0  0  0  0  0  0  0  0
    9.8745    1.5369    0.0000 O   0  0  0  0  0  0  0  0  0  0  0  0
    2.2690    6.4940    0.0000 O   0  0  0  0  0  0  0  0  0  0  0  0
    8.5084    1.9030    0.0000 O   0  0  0  0  0  0  0  0  0  0  0  0
    9.5084    0.1709    0.0000 O   0  0  0  0  0  0  0  0  0  0  0  0
    0.9030    6.8600    0.0000 O   0  0  0  0  0  0  0  0  0  0  0  0
    1.9030    5.1280    0.0000 O   0  0  0  0  0  0  0  0  0  0  0  0
   11.3184    7.6930    0.0000 N   0  0  0  0  0  0  0  0  0  0  0  0
    7.6696    6.5032    0.0000 N   0  0  0  0  0  0  0  0  0  0  0  0
    9.5062    7.4978    0.0000 N   0  0  0  0  0  0  0  0  0  0  0  0
   11.3184    9.3025    0.0000 N   0  0  0  0  0  0  0  0  0  0  0  0
    6.1915    7.1614    0.0000 N   0  0  0  0  0  0  0  0  0  0  0  0
   12.9021    8.4978    0.0000 N   0  0  0  0  0  0  0  0  0  0  0  0
   10.9613    5.9982    0.0000 C   0  0  0  0  0  0  0  0  0  0  0  0
   11.6291    6.7425    0.0000 C   0  0  0  0  0  0  0  0  0  0  0  0
   10.2934    5.2539    0.0000 C   0  0  0  0  0  0  0  0  0  0  0  0
   11.7056    5.3304    0.0000 C   0  0  0  0  0  0  0  0  0  0  0  0
   10.2170    6.6661    0.0000 C   0  0  0  0  0  0  0  0  0  0  0  0
    6.2847    5.3818    0.0000 C   0  0  0  0  0  0  0  0  0  0  0  0
   10.3722    7.9978    0.0000 C   0  0  0  0  0  0  0  0  0  0  0  0
    6.6915    6.2953    0.0000 C   0  0  0  0  0  0  0  0  0  0  0  0
   11.9021    8.4978    0.0000 C   0  0  0  0  0  0  0  0  0  0  0  0
   10.3722    8.9978    0.0000 C   0  0  0  0  0  0  0  0  0  0  0  0
    7.7742    7.4978    0.0000 C   0  0  0  0  0  0  0  0  0  0  0  0
    8.6402    7.9978    0.0000 C   0  0  0  0  0  0  0  0  0  0  0  0
    5.8780    4.4682    0.0000 C   0  0  0  0  0  0  0  0  0  0  0  0
    5.3712    5.7885    0.0000 C   0  0  0  0  0  0  0  0  0  0  0  0
    7.1983    4.9750    0.0000 C   0  0  0  0  0  0  0  0  0  0  0  0
    6.8606    7.9045    0.0000 C   0  0  0  0  0  0  0  0  0  0  0  0
    9.5062    9.4978    0.0000 C   0  0  0  0  0  0  0  0  0  0  0  0
    8.6402    8.9978    0.0000 C   0  0  0  0  0  0  0  0  0  0  0  0
    6.6527    8.8826    0.0000 C   0  0  0  0  0  0  0  0  0  0  0  0
    5.7016    9.1917    0.0000 C   0  0  0  0  0  0  0  0  0  0  0  0
    7.3958    9.5518    0.0000 C   0  0  0  0  0  0  0  0  0  0  0  0
    5.4937   10.1698    0.0000 C   0  0  0  0  0  0  0  0  0  0  0  0
    7.1879   10.5299    0.0000 C   0  0  0  0  0  0  0  0  0  0  0  0
    6.2369   10.8389    0.0000 C   0  0  0  0  0  0  0  0  0  0  0  0
    8.1424    0.5369    0.0000 C   0  0  0  0  0  0  0  0  0  0  0  0
    0.5369    5.4940    0.0000 C   0  0  0  0  0  0  0  0  0  0  0  0
   12.0117    6.2546    0.0000 H   0  0  0  0  0  0  0  0  0  0  0  0
   12.1760    7.0345    0.0000 H   0  0  0  0  0  0  0  0  0  0  0  0
    9.8320    5.6680    0.0000 H   0  0  0  0  0  0  0  0  0  0  0  0
    9.8794    4.7924    0.0000 H   0  0  0  0  0  0  0  0  0  0  0  0
   10.7549    4.8398    0.0000 H   0  0  0  0  0  0  0  0  0  0  0  0
   11.2915    4.8689    0.0000 H   0  0  0  0  0  0  0  0  0  0  0  0
   12.1670    4.9163    0.0000 H   0  0  0  0  0  0  0  0  0  0  0  0
   12.1196    5.7918    0.0000 H   0  0  0  0  0  0  0  0  0  0  0  0
   10.6310    7.1275    0.0000 H   0  0  0  0  0  0  0  0  0  0  0  0
    9.7555    7.0801    0.0000 H   0  0  0  0  0  0  0  0  0  0  0  0
    9.8029    6.2046    0.0000 H   0  0  0  0  0  0  0  0  0  0  0  0
    8.1304    6.0884    0.0000 H   0  0  0  0  0  0  0  0  0  0  0  0
    5.3116    4.7204    0.0000 H   0  0  0  0  0  0  0  0  0  0  0  0
    5.6258    3.9018    0.0000 H   0  0  0  0  0  0  0  0  0  0  0  0
    6.4444    4.2161    0.0000 H   0  0  0  0  0  0  0  0  0  0  0  0
    5.6234    6.3549    0.0000 H   0  0  0  0  0  0  0  0  0  0  0  0
    4.8048    6.0407    0.0000 H   0  0  0  0  0  0  0  0  0  0  0  0
    5.1190    5.2221    0.0000 H   0  0  0  0  0  0  0  0  0  0  0  0
    6.9461    4.4086    0.0000 H   0  0  0  0  0  0  0  0  0  0  0  0
    7.7647    4.7229    0.0000 H   0  0  0  0  0  0  0  0  0  0  0  0
    7.4505    5.5414    0.0000 H   0  0  0  0  0  0  0  0  0  0  0  0
    9.5062   10.1178    0.0000 H   0  0  0  0  0  0  0  0  0  0  0  0
    8.1032    9.3078    0.0000 H   0  0  0  0  0  0  0  0  0  0  0  0
   13.2121    9.0347    0.0000 H   0  0  0  0  0  0  0  0  0  0  0  0
   13.2121    7.9608    0.0000 H   0  0  0  0  0  0  0  0  0  0  0  0
    5.2409    8.7768    0.0000 H   0  0  0  0  0  0  0  0  0  0  0  0
    7.9855    9.3602    0.0000 H   0  0  0  0  0  0  0  0  0  0  0  0
    4.9041   10.3614    0.0000 H   0  0  0  0  0  0  0  0  0  0  0  0
    7.6487   10.9448    0.0000 H   0  0  0  0  0  0  0  0  0  0  0  0
    7.8324    1.0739    0.0000 H   0  0  0  0  0  0  0  0  0  0  0  0
    7.6055    0.2269    0.0000 H   0  0  0  0  0  0  0  0  0  0  0  0
    8.4524    0.0000    0.0000 H   0  0  0  0  0  0  0  0  0  0  0  0
    0.2269    6.0309    0.0000 H   0  0  0  0  0  0  0  0  0  0  0  0
    0.0000    5.1840    0.0000 H   0  0  0  0  0  0  0  0  0  0  0  0
    0.8469    4.9571    0.0000 H   0  0  0  0  0  0  0  0  0  0  0  0
   10.4114    1.2269    0.0000 H   0  0  0  0  0  0  0  0  0  0  0  0
    2.8059    6.1840    0.0000 H   0  0  0  0  0  0  0  0  0  0  0  0
  1  4  1  0  0  0  0
  1  6  2  0  0  0  0
  1  7  2  0  0  0  0
  1 40  1  0  0  0  0
  2  5  1  0  0  0  0
  2  8  2  0  0  0  0
  2  9  2  0  0  0  0
  2 41  1  0  0  0  0
  3 39  1  0  0  0  0
  4 77  1  0  0  0  0
  5 78  1  0  0  0  0
 10 17  1  0  0  0  0
 10 22  1  0  0  0  0
 10 24  1  0  0  0  0
 11 23  1  0  0  0  0
 11 26  1  0  0  0  0
 11 53  1  0  0  0  0
 12 22  1  0  0  0  0
 12 27  2  0  0  0  0
 13 24  2  0  0  0  0
 13 25  1  0  0  0  0
 14 23  2  0  0  0  0
 14 31  1  0  0  0  0
 15 24  1  0  0  0  0
 15 65  1  0  0  0  0
 15 66  1  0  0  0  0
 16 17  1  0  0  0  0
 16 18  1  0  0  0  0
 16 19  1  0  0  0  0
 16 20  1  0  0  0  0
 17 42  1  0  0  0  0
 17 43  1  0  0  0  0
 18 44  1  0  0  0  0
 18 45  1  0  0  0  0
 18 46  1  0  0  0  0
 19 47  1  0  0  0  0
 19 48  1  0  0  0  0
 19 49  1  0  0  0  0
 20 50  1  0  0  0  0
 20 51  1  0  0  0  0
 20 52  1  0  0  0  0
 21 23  1  0  0  0  0
 21 28  1  0  0  0  0
 21 29  1  0  0  0  0
 21 30  1  0  0  0  0
 22 25  2  0  0  0  0
 25 32  1  0  0  0  0
 26 27  1  0  0  0  0
 26 31  2  0  0  0  0
 27 33  1  0  0  0  0
 28 54  1  0  0  0  0
 28 55  1  0  0  0  0
 28 56  1  0  0  0  0
 29 57  1  0  0  0  0
 29 58  1  0  0  0  0
 29 59  1  0  0  0  0
 30 60  1  0  0  0  0
 30 61  1  0  0  0  0
 30 62  1  0  0  0  0
 31 34  1  0  0  0  0
 32 33  2  0  0  0  0
 32 63  1  0  0  0  0
 33 64  1  0  0  0  0
 34 35  2  0  0  0  0
 34 36  1  0  0  0  0
 35 37  1  0  0  0  0
 35 67  1  0  0  0  0
 36 38  2  0  0  0  0
 36 68  1  0  0  0  0
 37 39  2  0  0  0  0
 37 69  1  0  0  0  0
 38 39  1  0  0  0  0
 38 70  1  0  0  0  0
 40 71  1  0  0  0  0
 40 72  1  0  0  0  0
 40 73  1  0  0  0  0
 41 74  1  0  0  0  0
 41 75  1  0  0  0  0
 41 76  1  0  0  0  0
M  END
> <PUBCHEM_COMPOUND_CID>
11570805

> <PUBCHEM_COMPOUND_CANONICALIZED>
1

> <PUBCHEM_CACTVS_COMPLEXITY>
701

> <PUBCHEM_CACTVS_HBOND_ACCEPTOR>
11

> <PUBCHEM_CACTVS_HBOND_DONOR>
4

> <PUBCHEM_CACTVS_ROTATABLE_BOND>
5

> <PUBCHEM_CACTVS_SUBSKEYS>
AAADcfB7uQBgAAAAAAAAAAAAAAAAAWLAAAA8QAAAAAAAAFgB/gAAHQQQCAAADgjBHwyz8L/NkIKgAyZiZHCCgC2hEqAJ2SA4dJiIaOLA2ZGUIAhogALIyCcQgMAOAAAAAAAAAAAAAAAAAAAAAAAAAAAAAA==

> <PUBCHEM_IUPAC_OPENEYE_NAME>
5-[2-tert-butyl-4-(4-fluorophenyl)-1H-imidazol-5-yl]-3-(2,2-dimethylpropyl)imidazo[4,5-b]pyridin-2-amine;methanesulfonic acid

> <PUBCHEM_IUPAC_CAS_NAME>
5-[2-tert-butyl-4-(4-fluorophenyl)-1H-imidazol-5-yl]-3-(2,2-dimethylpropyl)-2-imidazo[4,5-b]pyridinamine;methanesulfonic acid

> <PUBCHEM_IUPAC_NAME_MARKUP>
5-[2-<I>tert</I>-butyl-4-(4-fluorophenyl)-1<I>H</I>-imidazol-5-yl]-3-(2,2-dimethylpropyl)imidazo[4,5-b]pyridin-2-amine;methanesulfonic acid

> <PUBCHEM_IUPAC_NAME>
5-[2-tert-butyl-4-(4-fluorophenyl)-1H-imidazol-5-yl]-3-(2,2-dimethylpropyl)imidazo[4,5-b]pyridin-2-amine;methanesulfonic acid

> <PUBCHEM_IUPAC_SYSTEMATIC_NAME>
5-[2-tert-butyl-4-(4-fluorophenyl)-1H-imidazol-5-yl]-3-(2,2-dimethylpropyl)imidazo[4,5-b]pyridin-2-amine;methanesulfonic acid

> <PUBCHEM_IUPAC_TRADITIONAL_NAME>
[5-[2-tert-butyl-4-(4-fluorophenyl)-1H-imidazol-5-yl]-3-neopentyl-imidazo[4,5-b]pyridin-2-yl]amine;mesylic acid

> <PUBCHEM_IUPAC_INCHI>
InChI=1S/C24H29FN6.2CH4O3S/c1-23(2,3)13-31-20-17(28-22(31)26)12-11-16(27-20)19-18(14-7-9-15(25)10-8-14)29-21(30-19)24(4,5)6;2*1-5(2,3)4/h7-12H,13H2,1-6H3,(H2,26,28)(H,29,30);2*1H3,(H,2,3,4)

> <PUBCHEM_IUPAC_INCHIKEY>
NARMJPIBAXVUIE-UHFFFAOYSA-N

> <PUBCHEM_EXACT_MASS>
612.22000343

> <PUBCHEM_MOLECULAR_FORMULA>
C26H37FN6O6S2

> <PUBCHEM_MOLECULAR_WEIGHT>
612.7

> <PUBCHEM_SMILES>
CC(C)(C)CN1C2=C(C=CC(=N2)C3=C(N=C(N3)C(C)(C)C)C4=CC=C(C=C4)F)N=C1N.CS(=O)(=O)O.CS(=O)(=O)O

> <PUBCHEM_CONNECTIVITY_SMILES>
CC(C)(C)CN1C2=C(C=CC(=N2)C3=C(N=C(N3)C(C)(C)C)C4=CC=C(C=C4)F)N=C1N.CS(=O)(=O)O.CS(=O)(=O)O

> <PUBCHEM_CACTVS_TPSA>
211

> <PUBCHEM_MONOISOTOPIC_WEIGHT>
612.22000343

> <PUBCHEM_TOTAL_CHARGE>
0

> <PUBCHEM_HEAVY_ATOM_COUNT>
41

> <PUBCHEM_ATOM_DEF_STEREO_COUNT>
0

> <PUBCHEM_ATOM_UDEF_STEREO_COUNT>
0

> <PUBCHEM_BOND_DEF_STEREO_COUNT>
0

> <PUBCHEM_BOND_UDEF_STEREO_COUNT>
0

> <PUBCHEM_ISOTOPIC_ATOM_COUNT>
0

> <PUBCHEM_COMPONENT_COUNT>
3

> <PUBCHEM_CACTVS_TAUTO_COUNT>
-1

> <PUBCHEM_COORDINATE_TYPE>
1
5
255

> <PUBCHEM_BONDANNOTATIONS>
10  22  8
10  24  8
11  23  8
11  26  8
12  22  8
12  27  8
13  24  8
13  25  8
14  23  8
14  31  8
22  25  8
25  32  8
26  31  8
27  33  8
32  33  8
34  35  8
34  36  8
35  37  8
36  38  8
37  39  8
38  39  8

$$$$
