164726578
  -OEChem-10172515112D

116123  0     1  0  0  0  0  0999 V2000
   10.0488    4.2066    0.0000 S   0  0  0  0  0  0  0  0  0  0  0  0
   12.0373    3.8212    0.0000 O   0  0  0  0  0  0  0  0  0  0  0  0
    9.1944   -1.0357    0.0000 O   0  0  0  0  0  0  0  0  0  0  0  0
   13.1988    1.6424    0.0000 O   0  0  0  0  0  0  0  0  0  0  0  0
   10.0938   -2.4345    0.0000 O   0  0  0  0  0  0  0  0  0  0  0  0
    2.9397   -1.3349    0.0000 O   0  0  0  0  0  0  0  0  0  0  0  0
   10.7913    2.6182    0.0000 N   0  0  0  0  0  0  0  0  0  0  0  0
   12.1203    0.2871    0.0000 N   0  0  0  0  0  0  0  0  0  0  0  0
   11.1899   -0.0793    0.0000 N   0  0  0  0  0  0  0  0  0  0  0  0
    5.7403    0.7396    0.0000 N   0  0  0  0  0  0  0  0  0  0  0  0
    9.5253    2.9248    0.0000 N   0  0  0  0  0  0  0  0  0  0  0  0
    6.1454   -3.6323    0.0000 N   0  0  0  0  0  0  0  0  0  0  0  0
    7.1454   -5.3643    0.0000 N   0  0  0  0  0  0  0  0  0  0  0  0
    4.1454   -1.9002    0.0000 N   0  0  0  0  0  0  0  0  0  0  0  0
   11.1009    5.5109    0.0000 C   0  0  2  0  0  0  0  0  0  0  0  0
   11.3427    4.5406    0.0000 C   0  0  2  0  0  0  0  0  0  0  0  0
   12.0621    5.2352    0.0000 C   0  0  0  0  0  0  0  0  0  0  0  0
   10.4063    6.2303    0.0000 C   0  0  0  0  0  0  0  0  0  0  0  0
   11.0670    3.5794    0.0000 C   0  0  0  0  0  0  0  0  0  0  0  0
   11.4858    1.8987    0.0000 C   0  0  1  0  0  0  0  0  0  0  0  0
   11.3727    2.8923    0.0000 C   0  0  0  0  0  0  0  0  0  0  0  0
   12.2683    1.2761    0.0000 C   0  0  0  0  0  0  0  0  0  0  0  0
    7.7958   -0.8265    0.0000 C   0  0  0  0  0  0  0  0  0  0  0  0
    6.7353   -0.9821    0.0000 C   0  0  0  0  0  0  0  0  0  0  0  0
    7.1342   -0.0651    0.0000 C   0  0  0  0  0  0  0  0  0  0  0  0
   12.9225   -0.3362    0.0000 C   0  0  0  0  0  0  0  0  0  0  0  0
   11.0419   -1.0683    0.0000 C   0  0  1  0  0  0  0  0  0  0  0  0
   12.7761   -1.3414    0.0000 C   0  0  0  0  0  0  0  0  0  0  0  0
   11.8294   -1.7099    0.0000 C   0  0  0  0  0  0  0  0  0  0  0  0
    6.1454   -0.1681    0.0000 C   0  0  0  0  0  0  0  0  0  0  0  0
   10.4557    3.2912    0.0000 C   0  0  0  0  0  0  0  0  0  0  0  0
    7.3434    0.9067    0.0000 C   0  0  0  0  0  0  0  0  0  0  0  0
    8.3905   -1.6304    0.0000 C   0  0  0  0  0  0  0  0  0  0  0  0
    6.4773    1.4067    0.0000 C   0  0  0  0  0  0  0  0  0  0  0  0
    8.6695   -0.3401    0.0000 C   0  0  0  0  0  0  0  0  0  0  0  0
    7.9848    0.1555    0.0000 C   0  0  0  0  0  0  0  0  0  0  0  0
    5.6454   -1.0342    0.0000 C   0  0  0  0  0  0  0  0  0  0  0  0
   10.1114   -1.4346    0.0000 C   0  0  0  0  0  0  0  0  0  0  0  0
    8.2094    1.4067    0.0000 C   0  0  0  0  0  0  0  0  0  0  0  0
    4.7618    0.9459    0.0000 C   0  0  0  0  0  0  0  0  0  0  0  0
    8.2094    2.4067    0.0000 C   0  0  0  0  0  0  0  0  0  0  0  0
    8.6083    3.3237    0.0000 C   0  0  0  0  0  0  0  0  0  0  0  0
    6.4773    2.4067    0.0000 C   0  0  0  0  0  0  0  0  0  0  0  0
    4.6454   -1.0342    0.0000 C   0  0  0  0  0  0  0  0  0  0  0  0
    6.1454   -1.9002    0.0000 C   0  0  0  0  0  0  0  0  0  0  0  0
    7.3434    2.9067    0.0000 C   0  0  0  0  0  0  0  0  0  0  0  0
    5.6454   -2.7662    0.0000 C   0  0  0  0  0  0  0  0  0  0  0  0
    9.0472    4.2243    0.0000 C   0  0  0  0  0  0  0  0  0  0  0  0
    5.6454   -4.4983    0.0000 C   0  0  0  0  0  0  0  0  0  0  0  0
    7.1454   -3.6323    0.0000 C   0  0  0  0  0  0  0  0  0  0  0  0
    6.1454   -5.3643    0.0000 C   0  0  0  0  0  0  0  0  0  0  0  0
    7.6454   -4.4983    0.0000 C   0  0  0  0  0  0  0  0  0  0  0  0
    3.7057   -0.6922    0.0000 C   0  0  2  0  0  0  0  0  0  0  0  0
    4.4512    1.8964    0.0000 C   0  0  0  0  0  0  0  0  0  0  0  0
    4.6454   -2.7662    0.0000 C   0  0  0  0  0  0  0  0  0  0  0  0
    3.5321    0.2927    0.0000 C   0  0  0  0  0  0  0  0  0  0  0  0
    7.6454   -6.2303    0.0000 C   0  0  0  0  0  0  0  0  0  0  0  0
    2.0000   -0.9929    0.0000 C   0  0  0  0  0  0  0  0  0  0  0  0
   11.4203    6.0424    0.0000 H   0  0  0  0  0  0  0  0  0  0  0  0
   11.8742    4.2213    0.0000 H   0  0  0  0  0  0  0  0  0  0  0  0
   12.5637    4.8708    0.0000 H   0  0  0  0  0  0  0  0  0  0  0  0
   12.3340    5.7924    0.0000 H   0  0  0  0  0  0  0  0  0  0  0  0
   10.8523    6.6610    0.0000 H   0  0  0  0  0  0  0  0  0  0  0  0
    9.9757    6.6764    0.0000 H   0  0  0  0  0  0  0  0  0  0  0  0
    9.9603    5.7997    0.0000 H   0  0  0  0  0  0  0  0  0  0  0  0
   10.1896    2.4683    0.0000 H   0  0  0  0  0  0  0  0  0  0  0  0
   11.0397    1.4681    0.0000 H   0  0  0  0  0  0  0  0  0  0  0  0
   11.9916    2.8544    0.0000 H   0  0  0  0  0  0  0  0  0  0  0  0
   11.5176    3.4952    0.0000 H   0  0  0  0  0  0  0  0  0  0  0  0
    6.1309   -0.8438    0.0000 H   0  0  0  0  0  0  0  0  0  0  0  0
    6.7107   -1.6016    0.0000 H   0  0  0  0  0  0  0  0  0  0  0  0
   13.5117   -0.5292    0.0000 H   0  0  0  0  0  0  0  0  0  0  0  0
   13.2135    0.2113    0.0000 H   0  0  0  0  0  0  0  0  0  0  0  0
   10.9161   -1.9089    0.0000 H   0  0  0  0  0  0  0  0  0  0  0  0
   12.8988   -1.9491    0.0000 H   0  0  0  0  0  0  0  0  0  0  0  0
   13.3958   -1.3245    0.0000 H   0  0  0  0  0  0  0  0  0  0  0  0
   11.3614   -2.1165    0.0000 H   0  0  0  0  0  0  0  0  0  0  0  0
   12.1499   -2.2407    0.0000 H   0  0  0  0  0  0  0  0  0  0  0  0
   10.7047    0.3068    0.0000 H   0  0  0  0  0  0  0  0  0  0  0  0
    7.8920   -1.9992    0.0000 H   0  0  0  0  0  0  0  0  0  0  0  0
    8.7592   -2.1289    0.0000 H   0  0  0  0  0  0  0  0  0  0  0  0
    8.9711   -0.8818    0.0000 H   0  0  0  0  0  0  0  0  0  0  0  0
    9.2112   -0.0385    0.0000 H   0  0  0  0  0  0  0  0  0  0  0  0
    8.3679    0.2016    0.0000 H   0  0  0  0  0  0  0  0  0  0  0  0
    8.5936    0.0383    0.0000 H   0  0  0  0  0  0  0  0  0  0  0  0
    8.1020    0.7643    0.0000 H   0  0  0  0  0  0  0  0  0  0  0  0
    7.3760    0.2727    0.0000 H   0  0  0  0  0  0  0  0  0  0  0  0
    8.7463    1.0967    0.0000 H   0  0  0  0  0  0  0  0  0  0  0  0
    4.1480    0.8585    0.0000 H   0  0  0  0  0  0  0  0  0  0  0  0
    4.7412    0.3262    0.0000 H   0  0  0  0  0  0  0  0  0  0  0  0
    5.9404    2.7167    0.0000 H   0  0  0  0  0  0  0  0  0  0  0  0
    6.7654   -1.9002    0.0000 H   0  0  0  0  0  0  0  0  0  0  0  0
    7.3434    3.5267    0.0000 H   0  0  0  0  0  0  0  0  0  0  0  0
    5.1705   -4.0998    0.0000 H   0  0  0  0  0  0  0  0  0  0  0  0
    5.1705   -4.8968    0.0000 H   0  0  0  0  0  0  0  0  0  0  0  0
    7.7280   -3.4202    0.0000 H   0  0  0  0  0  0  0  0  0  0  0  0
    7.0378   -3.0217    0.0000 H   0  0  0  0  0  0  0  0  0  0  0  0
    8.7232    4.7529    0.0000 H   0  0  0  0  0  0  0  0  0  0  0  0
    5.5628   -5.5764    0.0000 H   0  0  0  0  0  0  0  0  0  0  0  0
    6.2531   -5.9749    0.0000 H   0  0  0  0  0  0  0  0  0  0  0  0
    8.1204   -4.8968    0.0000 H   0  0  0  0  0  0  0  0  0  0  0  0
    8.1204   -4.0998    0.0000 H   0  0  0  0  0  0  0  0  0  0  0  0
    3.1231   -0.4801    0.0000 H   0  0  0  0  0  0  0  0  0  0  0  0
    5.0405    2.0890    0.0000 H   0  0  0  0  0  0  0  0  0  0  0  0
    4.2585    2.4857    0.0000 H   0  0  0  0  0  0  0  0  0  0  0  0
    3.8618    1.7038    0.0000 H   0  0  0  0  0  0  0  0  0  0  0  0
    4.3354   -3.3032    0.0000 H   0  0  0  0  0  0  0  0  0  0  0  0
    4.1427    0.4003    0.0000 H   0  0  0  0  0  0  0  0  0  0  0  0
    3.4244    0.9032    0.0000 H   0  0  0  0  0  0  0  0  0  0  0  0
    2.9215    0.1850    0.0000 H   0  0  0  0  0  0  0  0  0  0  0  0
    7.1085   -6.5403    0.0000 H   0  0  0  0  0  0  0  0  0  0  0  0
    7.9554   -6.7673    0.0000 H   0  0  0  0  0  0  0  0  0  0  0  0
    8.1824   -5.9203    0.0000 H   0  0  0  0  0  0  0  0  0  0  0  0
    2.2121   -0.4103    0.0000 H   0  0  0  0  0  0  0  0  0  0  0  0
    1.4174   -0.7809    0.0000 H   0  0  0  0  0  0  0  0  0  0  0  0
    1.7880   -1.5755    0.0000 H   0  0  0  0  0  0  0  0  0  0  0  0
  1 31  1  0  0  0  0
  1 48  1  0  0  0  0
  2 19  2  0  0  0  0
  3 33  1  0  0  0  0
  3 38  1  0  0  0  0
  4 22  2  0  0  0  0
  5 38  2  0  0  0  0
 53  6  1  1  0  0  0
  6 58  1  0  0  0  0
  7 19  1  0  0  0  0
 20  7  1  1  0  0  0
  7 66  1  0  0  0  0
  8  9  1  0  0  0  0
  8 22  1  0  0  0  0
  8 26  1  0  0  0  0
  9 27  1  0  0  0  0
  9 79  1  0  0  0  0
 10 30  1  0  0  0  0
 10 34  1  0  0  0  0
 10 40  1  0  0  0  0
 11 31  2  0  0  0  0
 11 42  1  0  0  0  0
 12 47  1  0  0  0  0
 12 49  1  0  0  0  0
 12 50  1  0  0  0  0
 13 51  1  0  0  0  0
 13 52  1  0  0  0  0
 13 57  1  0  0  0  0
 14 44  1  0  0  0  0
 14 55  2  0  0  0  0
 15 16  1  0  0  0  0
 15 17  1  0  0  0  0
 15 18  1  1  0  0  0
 15 59  1  0  0  0  0
 16 17  1  0  0  0  0
 16 19  1  6  0  0  0
 16 60  1  0  0  0  0
 17 61  1  0  0  0  0
 17 62  1  0  0  0  0
 18 63  1  0  0  0  0
 18 64  1  0  0  0  0
 18 65  1  0  0  0  0
 20 21  1  0  0  0  0
 20 22  1  0  0  0  0
 20 67  1  0  0  0  0
 21 31  1  0  0  0  0
 21 68  1  0  0  0  0
 21 69  1  0  0  0  0
 23 24  1  0  0  0  0
 23 33  1  0  0  0  0
 23 35  1  0  0  0  0
 23 36  1  0  0  0  0
 24 25  1  0  0  0  0
 24 70  1  0  0  0  0
 24 71  1  0  0  0  0
 25 30  2  0  0  0  0
 25 32  1  0  0  0  0
 26 28  1  0  0  0  0
 26 72  1  0  0  0  0
 26 73  1  0  0  0  0
 27 29  1  0  0  0  0
 27 38  1  0  0  0  0
 27 74  1  6  0  0  0
 28 29  1  0  0  0  0
 28 75  1  0  0  0  0
 28 76  1  0  0  0  0
 29 77  1  0  0  0  0
 29 78  1  0  0  0  0
 30 37  1  0  0  0  0
 32 34  2  0  0  0  0
 32 39  1  0  0  0  0
 33 80  1  0  0  0  0
 33 81  1  0  0  0  0
 34 43  1  0  0  0  0
 35 82  1  0  0  0  0
 35 83  1  0  0  0  0
 35 84  1  0  0  0  0
 36 85  1  0  0  0  0
 36 86  1  0  0  0  0
 36 87  1  0  0  0  0
 37 44  2  0  0  0  0
 37 45  1  0  0  0  0
 39 41  2  0  0  0  0
 39 88  1  0  0  0  0
 40 54  1  0  0  0  0
 40 89  1  0  0  0  0
 40 90  1  0  0  0  0
 41 42  1  0  0  0  0
 41 46  1  0  0  0  0
 42 48  2  0  0  0  0
 43 46  2  0  0  0  0
 43 91  1  0  0  0  0
 44 53  1  0  0  0  0
 45 47  2  0  0  0  0
 45 92  1  0  0  0  0
 46 93  1  0  0  0  0
 47 55  1  0  0  0  0
 48 98  1  0  0  0  0
 49 51  1  0  0  0  0
 49 94  1  0  0  0  0
 49 95  1  0  0  0  0
 50 52  1  0  0  0  0
 50 96  1  0  0  0  0
 50 97  1  0  0  0  0
 51 99  1  0  0  0  0
 51100  1  0  0  0  0
 52101  1  0  0  0  0
 52102  1  0  0  0  0
 53 56  1  0  0  0  0
 53103  1  0  0  0  0
 54104  1  0  0  0  0
 54105  1  0  0  0  0
 54106  1  0  0  0  0
 55107  1  0  0  0  0
 56108  1  0  0  0  0
 56109  1  0  0  0  0
 56110  1  0  0  0  0
 57111  1  0  0  0  0
 57112  1  0  0  0  0
 57113  1  0  0  0  0
 58114  1  0  0  0  0
 58115  1  0  0  0  0
 58116  1  0  0  0  0
M  END
> <PUBCHEM_COMPOUND_CID>
164726578

> <PUBCHEM_COMPOUND_CANONICALIZED>
1

> <PUBCHEM_CACTVS_COMPLEXITY>
1470

> <PUBCHEM_CACTVS_HBOND_ACCEPTOR>
11

> <PUBCHEM_CACTVS_HBOND_DONOR>
2

> <PUBCHEM_CACTVS_ROTATABLE_BOND>
7

> <PUBCHEM_CACTVS_SUBSKEYS>
AAADcfB/+ABAAAAAAAAAAAAAGAAAAWLAAAA8WLEAAAAAAFgB/gAAHgQYAAAADzzl3ga+yfPuFAisAzX3XASC8KBxGjga+LW4fJgKZvLg8bmXMAhk1gH46Ae80fMPiAACAAACAAAQAAQAAAQAAAAAAAAAAA==

> <PUBCHEM_IUPAC_OPENEYE_NAME>
trans-(1S,2S)-N-[(7S,13S)-21-ethyl-20-[2-[(1S)-1-methoxyethyl]-5-(4-methylpiperazin-1-yl)-3-pyridyl]-17,17-dimethyl-8,14-dioxo-15-oxa-4-thia-9,21,27,28-tetrazapentacyclo[17.5.2.12,5.19,13.022,26]octacosa-1(25),2,5(28),19,22(26),23-hexaen-7-yl]-2-methyl-cyclopropanecarboxamide

> <PUBCHEM_IUPAC_CAS_NAME>
trans-(1S,2S)-N-[(7S,13S)-21-ethyl-20-[2-[(1S)-1-methoxyethyl]-5-(4-methyl-1-piperazinyl)-3-pyridinyl]-17,17-dimethyl-8,14-dioxo-15-oxa-4-thia-9,21,27,28-tetrazapentacyclo[17.5.2.12,5.19,13.022,26]octacosa-1(25),2,5(28),19,22(26),23-hexaen-7-yl]-2-methyl-1-cyclopropanecarboxamide

> <PUBCHEM_IUPAC_NAME_MARKUP>
trans-(1<I>S</I>,2<I>S</I>)-<I>N</I>-[(7<I>S</I>,13<I>S</I>)-21-ethyl-20-[2-[(1<I>S</I>)-1-methoxyethyl]-5-(4-methylpiperazin-1-yl)-3-pyridinyl]-17,17-dimethyl-8,14-dioxo-15-oxa-4-thia-9,21,27,28-tetrazapentacyclo[17.5.2.1<SUP>2,5</SUP>.1<SUP>9,13</SUP>.0<SUP>22,26</SUP>]octacosa-1(25),2,5(28),19,22(26),23-hexaen-7-yl]-2-methylcyclopropane-1-carboxamide

> <PUBCHEM_IUPAC_NAME>
trans-(1S,2S)-N-[(7S,13S)-21-ethyl-20-[2-[(1S)-1-methoxyethyl]-5-(4-methylpiperazin-1-yl)-3-pyridinyl]-17,17-dimethyl-8,14-dioxo-15-oxa-4-thia-9,21,27,28-tetrazapentacyclo[17.5.2.12,5.19,13.022,26]octacosa-1(25),2,5(28),19,22(26),23-hexaen-7-yl]-2-methylcyclopropane-1-carboxamide

> <PUBCHEM_IUPAC_SYSTEMATIC_NAME>
trans-(1S,2S)-N-[(7S,13S)-21-ethyl-20-[2-[(1S)-1-methoxyethyl]-5-(4-methylpiperazin-1-yl)-3-pyridinyl]-17,17-dimethyl-8,14-bis(oxidanylidene)-15-oxa-4-thia-9,21,27,28-tetrazapentacyclo[17.5.2.12,5.19,13.022,26]octacosa-1(25),2,5(28),19,22(26),23-hexaen-7-yl]-2-methyl-cyclopropane-1-carboxamide

> <PUBCHEM_IUPAC_TRADITIONAL_NAME>
trans-(1S,2S)-N-[(7S,13S)-21-ethyl-8,14-diketo-20-[2-[(1S)-1-methoxyethyl]-5-(4-methylpiperazino)-3-pyridyl]-17,17-dimethyl-15-oxa-4-thia-9,21,27,28-tetrazapentacyclo[17.5.2.12,5.19,13.022,26]octacosa-1(25),2,5(28),19,22(26),23-hexaen-7-yl]-2-methyl-cyclopropanecarboxamide

> <PUBCHEM_IUPAC_INCHI>
InChI=1S/C44H58N8O5S/c1-8-51-37-12-11-28-19-31(37)33(40(51)32-20-29(23-45-39(32)27(3)56-7)50-16-14-49(6)15-17-50)22-44(4,5)25-57-43(55)34-10-9-13-52(48-34)42(54)35(21-38-46-36(28)24-58-38)47-41(53)30-18-26(30)2/h11-12,19-20,23-24,26-27,30,34-35,48H,8-10,13-18,21-22,25H2,1-7H3,(H,47,53)/t26-,27-,30-,34-,35-/m0/s1

> <PUBCHEM_IUPAC_INCHIKEY>
FVICRBSEYSHKFY-JYQNNKODSA-N

> <PUBCHEM_XLOGP3_AA>
5.1

> <PUBCHEM_EXACT_MASS>
810.42508815

> <PUBCHEM_MOLECULAR_FORMULA>
C44H58N8O5S

> <PUBCHEM_MOLECULAR_WEIGHT>
811.0

> <PUBCHEM_SMILES>
CCN1C2=C3C=C(C=C2)C4=CSC(=N4)C[C@@H](C(=O)N5CCC[C@H](N5)C(=O)OCC(CC3=C1C6=C(N=CC(=C6)N7CCN(CC7)C)[C@H](C)OC)(C)C)NC(=O)[C@H]8C[C@@H]8C

> <PUBCHEM_CONNECTIVITY_SMILES>
CCN1C2=C3C=C(C=C2)C4=CSC(=N4)CC(C(=O)N5CCCC(N5)C(=O)OCC(CC3=C1C6=C(N=CC(=C6)N7CCN(CC7)C)C(C)OC)(C)C)NC(=O)C8CC8C

> <PUBCHEM_CACTVS_TPSA>
162

> <PUBCHEM_MONOISOTOPIC_WEIGHT>
810.42508815

> <PUBCHEM_TOTAL_CHARGE>
0

> <PUBCHEM_HEAVY_ATOM_COUNT>
58

> <PUBCHEM_ATOM_DEF_STEREO_COUNT>
5

> <PUBCHEM_ATOM_UDEF_STEREO_COUNT>
0

> <PUBCHEM_BOND_DEF_STEREO_COUNT>
0

> <PUBCHEM_BOND_UDEF_STEREO_COUNT>
0

> <PUBCHEM_ISOTOPIC_ATOM_COUNT>
0

> <PUBCHEM_COMPONENT_COUNT>
1

> <PUBCHEM_CACTVS_TAUTO_COUNT>
-1

> <PUBCHEM_COORDINATE_TYPE>
1
5
255

> <PUBCHEM_BONDANNOTATIONS>
1  31  8
1  48  8
10  30  8
10  34  8
11  31  8
11  42  8
14  44  8
14  55  8
15  18  5
16  19  6
25  30  8
25  32  8
27  74  6
32  34  8
32  39  8
34  43  8
37  44  8
37  45  8
39  41  8
41  46  8
42  48  8
43  46  8
45  47  8
47  55  8
53  6  5
20  7  5

$$$$
