6918111
  -OEChem-10172515112D

 51 50  0     1  0  0  0  0  0999 V2000
    0.0000    4.7975    0.0000 Cl  0  0  0  0  0  0  0  0  0  0  0  0
    7.0010    6.1200    0.0000 O   0  0  0  0  0  0  0  0  0  0  0  0
    6.5680    0.0000    0.0000 O   0  0  0  0  0  0  0  0  0  0  0  0
    7.0010    8.1200    0.0000 N   0  0  3  0  0  0  0  0  0  0  0  0
    5.2690    6.1200    0.0000 N   0  0  0  0  0  0  0  0  0  0  0  0
    6.1350    7.6200    0.0000 C   0  0  1  0  0  0  0  0  0  0  0  0
    5.2690    8.1200    0.0000 C   0  0  0  0  0  0  0  0  0  0  0  0
    7.0010    9.1200    0.0000 C   0  0  0  0  0  0  0  0  0  0  0  0
    5.2690    9.1200    0.0000 C   0  0  0  0  0  0  0  0  0  0  0  0
    6.1350    9.6200    0.0000 C   0  0  0  0  0  0  0  0  0  0  0  0
    7.8671    7.6200    0.0000 C   0  0  0  0  0  0  0  0  0  0  0  0
    6.1350    6.6200    0.0000 C   0  0  0  0  0  0  0  0  0  0  0  0
    8.7331    8.1200    0.0000 C   0  0  0  0  0  0  0  0  0  0  0  0
    9.5991    7.6200    0.0000 C   0  0  0  0  0  0  0  0  0  0  0  0
    5.2690    5.1200    0.0000 C   0  0  0  0  0  0  0  0  0  0  0  0
    4.4030    4.6200    0.0000 C   0  0  0  0  0  0  0  0  0  0  0  0
    6.1350    4.6200    0.0000 C   0  0  0  0  0  0  0  0  0  0  0  0
    4.4030    3.6200    0.0000 C   0  0  0  0  0  0  0  0  0  0  0  0
    6.1350    3.6200    0.0000 C   0  0  0  0  0  0  0  0  0  0  0  0
    3.5369    5.1200    0.0000 C   0  0  0  0  0  0  0  0  0  0  0  0
    7.0010    5.1200    0.0000 C   0  0  0  0  0  0  0  0  0  0  0  0
    5.2690    3.1200    0.0000 C   0  0  0  0  0  0  0  0  0  0  0  0
    6.6720    7.3100    0.0000 H   0  0  0  0  0  0  0  0  0  0  0  0
    4.6584    8.2277    0.0000 H   0  0  0  0  0  0  0  0  0  0  0  0
    5.0569    7.5374    0.0000 H   0  0  0  0  0  0  0  0  0  0  0  0
    7.6116    9.0123    0.0000 H   0  0  0  0  0  0  0  0  0  0  0  0
    7.2131    9.7026    0.0000 H   0  0  0  0  0  0  0  0  0  0  0  0
    5.0569    9.7026    0.0000 H   0  0  0  0  0  0  0  0  0  0  0  0
    4.6584    9.0123    0.0000 H   0  0  0  0  0  0  0  0  0  0  0  0
    6.5335   10.0949    0.0000 H   0  0  0  0  0  0  0  0  0  0  0  0
    5.7365   10.0949    0.0000 H   0  0  0  0  0  0  0  0  0  0  0  0
    7.4685    7.1451    0.0000 H   0  0  0  0  0  0  0  0  0  0  0  0
    8.2656    7.1451    0.0000 H   0  0  0  0  0  0  0  0  0  0  0  0
    9.1316    8.5950    0.0000 H   0  0  0  0  0  0  0  0  0  0  0  0
    8.3346    8.5950    0.0000 H   0  0  0  0  0  0  0  0  0  0  0  0
    4.7321    6.4300    0.0000 H   0  0  0  0  0  0  0  0  0  0  0  0
    9.2891    7.0831    0.0000 H   0  0  0  0  0  0  0  0  0  0  0  0
   10.1360    7.3100    0.0000 H   0  0  0  0  0  0  0  0  0  0  0  0
    9.9091    8.1569    0.0000 H   0  0  0  0  0  0  0  0  0  0  0  0
    3.8660    3.3100    0.0000 H   0  0  0  0  0  0  0  0  0  0  0  0
    6.6720    3.3100    0.0000 H   0  0  0  0  0  0  0  0  0  0  0  0
    3.8469    5.6569    0.0000 H   0  0  0  0  0  0  0  0  0  0  0  0
    3.0000    5.4300    0.0000 H   0  0  0  0  0  0  0  0  0  0  0  0
    3.2269    4.5831    0.0000 H   0  0  0  0  0  0  0  0  0  0  0  0
    7.3110    4.5831    0.0000 H   0  0  0  0  0  0  0  0  0  0  0  0
    7.5380    5.4300    0.0000 H   0  0  0  0  0  0  0  0  0  0  0  0
    6.6910    5.6569    0.0000 H   0  0  0  0  0  0  0  0  0  0  0  0
    5.2690    2.5000    0.0000 H   0  0  0  0  0  0  0  0  0  0  0  0
    7.1050    0.3100    0.0000 H   0  0  0  0  0  0  0  0  0  0  0  0
    6.0311    0.3100    0.0000 H   0  0  0  0  0  0  0  0  0  0  0  0
    1.0000    4.7975    0.0000 H   0  0  0  0  0  0  0  0  0  0  0  0
  1 51  1  0  0  0  0
  2 12  2  0  0  0  0
  3 49  1  0  0  0  0
  3 50  1  0  0  0  0
  4  6  1  0  0  0  0
  4  8  1  0  0  0  0
  4 11  1  0  0  0  0
  5 12  1  0  0  0  0
  5 15  1  0  0  0  0
  5 36  1  0  0  0  0
  6  7  1  0  0  0  0
  6 12  1  6  0  0  0
  6 23  1  0  0  0  0
  7  9  1  0  0  0  0
  7 24  1  0  0  0  0
  7 25  1  0  0  0  0
  8 10  1  0  0  0  0
  8 26  1  0  0  0  0
  8 27  1  0  0  0  0
  9 10  1  0  0  0  0
  9 28  1  0  0  0  0
  9 29  1  0  0  0  0
 10 30  1  0  0  0  0
 10 31  1  0  0  0  0
 11 13  1  0  0  0  0
 11 32  1  0  0  0  0
 11 33  1  0  0  0  0
 13 14  1  0  0  0  0
 13 34  1  0  0  0  0
 13 35  1  0  0  0  0
 14 37  1  0  0  0  0
 14 38  1  0  0  0  0
 14 39  1  0  0  0  0
 15 16  2  0  0  0  0
 15 17  1  0  0  0  0
 16 18  1  0  0  0  0
 16 20  1  0  0  0  0
 17 19  2  0  0  0  0
 17 21  1  0  0  0  0
 18 22  2  0  0  0  0
 18 40  1  0  0  0  0
 19 22  1  0  0  0  0
 19 41  1  0  0  0  0
 20 42  1  0  0  0  0
 20 43  1  0  0  0  0
 20 44  1  0  0  0  0
 21 45  1  0  0  0  0
 21 46  1  0  0  0  0
 21 47  1  0  0  0  0
 22 48  1  0  0  0  0
M  END
> <PUBCHEM_COMPOUND_CID>
6918111

> <PUBCHEM_COMPOUND_CANONICALIZED>
1

> <PUBCHEM_CACTVS_COMPLEXITY>
308

> <PUBCHEM_CACTVS_HBOND_ACCEPTOR>
3

> <PUBCHEM_CACTVS_HBOND_DONOR>
3

> <PUBCHEM_CACTVS_ROTATABLE_BOND>
4

> <PUBCHEM_CACTVS_SUBSKEYS>
AAADceB7MAAEAAAAAAAAAAAAAAAAAAAAAAA8QAAAAAAAAAABAAAAHgAQCAAADCjBmAQywIPAAACIAiVSUACCAAAhAAAIiAGIRIgIYDLAkbGUIAhglADIyAcYiEAOAAACAAACAAAAAAQAAAQAAAAAAAAAAA==

> <PUBCHEM_IUPAC_OPENEYE_NAME>
(2S)-N-(2,6-dimethylphenyl)-1-propyl-piperidine-2-carboxamide;hydrate;hydrochloride

> <PUBCHEM_IUPAC_CAS_NAME>
(2S)-N-(2,6-dimethylphenyl)-1-propyl-2-piperidinecarboxamide;hydrate;hydrochloride

> <PUBCHEM_IUPAC_NAME_MARKUP>
(2<I>S</I>)-<I>N</I>-(2,6-dimethylphenyl)-1-propylpiperidine-2-carboxamide;hydrate;hydrochloride

> <PUBCHEM_IUPAC_NAME>
(2S)-N-(2,6-dimethylphenyl)-1-propylpiperidine-2-carboxamide;hydrate;hydrochloride

> <PUBCHEM_IUPAC_SYSTEMATIC_NAME>
(2S)-N-(2,6-dimethylphenyl)-1-propyl-piperidine-2-carboxamide;hydrate;hydrochloride

> <PUBCHEM_IUPAC_TRADITIONAL_NAME>
(2S)-N-(2,6-dimethylphenyl)-1-propyl-pipecolinamide;hydrate;hydrochloride

> <PUBCHEM_IUPAC_INCHI>
InChI=1S/C17H26N2O.ClH.H2O/c1-4-11-19-12-6-5-10-15(19)17(20)18-16-13(2)8-7-9-14(16)3;;/h7-9,15H,4-6,10-12H2,1-3H3,(H,18,20);1H;1H2/t15-;;/m0../s1

> <PUBCHEM_IUPAC_INCHIKEY>
VSHFRHVKMYGBJL-CKUXDGONSA-N

> <PUBCHEM_EXACT_MASS>
328.1917559

> <PUBCHEM_MOLECULAR_FORMULA>
C17H29ClN2O2

> <PUBCHEM_MOLECULAR_WEIGHT>
328.9

> <PUBCHEM_SMILES>
CCCN1CCCC[C@H]1C(=O)NC2=C(C=CC=C2C)C.O.Cl

> <PUBCHEM_CONNECTIVITY_SMILES>
CCCN1CCCCC1C(=O)NC2=C(C=CC=C2C)C.O.Cl

> <PUBCHEM_CACTVS_TPSA>
33.3

> <PUBCHEM_MONOISOTOPIC_WEIGHT>
328.1917559

> <PUBCHEM_TOTAL_CHARGE>
0

> <PUBCHEM_HEAVY_ATOM_COUNT>
22

> <PUBCHEM_ATOM_DEF_STEREO_COUNT>
1

> <PUBCHEM_ATOM_UDEF_STEREO_COUNT>
0

> <PUBCHEM_BOND_DEF_STEREO_COUNT>
0

> <PUBCHEM_BOND_UDEF_STEREO_COUNT>
0

> <PUBCHEM_ISOTOPIC_ATOM_COUNT>
0

> <PUBCHEM_COMPONENT_COUNT>
3

> <PUBCHEM_CACTVS_TAUTO_COUNT>
-1

> <PUBCHEM_COORDINATE_TYPE>
1
5
255

> <PUBCHEM_BONDANNOTATIONS>
15  16  8
15  17  8
16  18  8
17  19  8
18  22  8
19  22  8
6  12  6

$$$$
