121241171
  -OEChem-10172515052D

 43 46  0     0  0  0  0  0  0999 V2000
    2.0000    0.0241    0.0000 Cl  0  0  0  0  0  0  0  0  0  0  0  0
   10.7263   -3.0000    0.0000 F   0  0  0  0  0  0  0  0  0  0  0  0
    7.2622   -2.0000    0.0000 O   0  0  0  0  0  0  0  0  0  0  0  0
    7.2622    1.0000    0.0000 O   0  0  0  0  0  0  0  0  0  0  0  0
    5.5301   -2.0000    0.0000 N   0  0  0  0  0  0  0  0  0  0  0  0
   11.5923   -0.5000    0.0000 N   0  0  0  0  0  0  0  0  0  0  0  0
    5.5301    0.0000    0.0000 C   0  0  0  0  0  0  0  0  0  0  0  0
    4.6641   -0.5000    0.0000 C   0  0  0  0  0  0  0  0  0  0  0  0
    4.6641   -1.5000    0.0000 C   0  0  0  0  0  0  0  0  0  0  0  0
    6.3962   -0.5000    0.0000 C   0  0  0  0  0  0  0  0  0  0  0  0
    5.5301    1.0000    0.0000 C   0  0  0  0  0  0  0  0  0  0  0  0
    6.3962   -1.5000    0.0000 C   0  0  0  0  0  0  0  0  0  0  0  0
    3.7702    0.0347    0.0000 C   0  0  0  0  0  0  0  0  0  0  0  0
    3.7702   -2.0347    0.0000 C   0  0  0  0  0  0  0  0  0  0  0  0
    7.2622    0.0000    0.0000 C   0  0  0  0  0  0  0  0  0  0  0  0
    2.8641   -0.4792    0.0000 C   0  0  0  0  0  0  0  0  0  0  0  0
    4.6641    1.5000    0.0000 C   0  0  0  0  0  0  0  0  0  0  0  0
    6.3962    1.5000    0.0000 C   0  0  0  0  0  0  0  0  0  0  0  0
    2.8641   -1.5208    0.0000 C   0  0  0  0  0  0  0  0  0  0  0  0
    4.6641    2.5000    0.0000 C   0  0  0  0  0  0  0  0  0  0  0  0
    6.3962    2.5000    0.0000 C   0  0  0  0  0  0  0  0  0  0  0  0
    8.1282   -0.5000    0.0000 C   0  0  0  0  0  0  0  0  0  0  0  0
    5.5301    3.0000    0.0000 C   0  0  0  0  0  0  0  0  0  0  0  0
    8.9942   -0.0000    0.0000 C   0  0  0  0  0  0  0  0  0  0  0  0
    9.8603   -0.5000    0.0000 C   0  0  0  0  0  0  0  0  0  0  0  0
    9.8603   -1.5000    0.0000 C   0  0  0  0  0  0  0  0  0  0  0  0
   10.7263   -0.0000    0.0000 C   0  0  0  0  0  0  0  0  0  0  0  0
   10.7263   -2.0000    0.0000 C   0  0  0  0  0  0  0  0  0  0  0  0
   11.5923   -1.5000    0.0000 C   0  0  0  0  0  0  0  0  0  0  0  0
    5.5301   -2.6200    0.0000 H   0  0  0  0  0  0  0  0  0  0  0  0
    3.7773    0.6546    0.0000 H   0  0  0  0  0  0  0  0  0  0  0  0
    3.7773   -2.6546    0.0000 H   0  0  0  0  0  0  0  0  0  0  0  0
    4.1272    1.1900    0.0000 H   0  0  0  0  0  0  0  0  0  0  0  0
    6.9331    1.1900    0.0000 H   0  0  0  0  0  0  0  0  0  0  0  0
    2.3284   -1.8329    0.0000 H   0  0  0  0  0  0  0  0  0  0  0  0
    4.1272    2.8100    0.0000 H   0  0  0  0  0  0  0  0  0  0  0  0
    6.9331    2.8100    0.0000 H   0  0  0  0  0  0  0  0  0  0  0  0
    8.1282   -1.1200    0.0000 H   0  0  0  0  0  0  0  0  0  0  0  0
    5.5301    3.6200    0.0000 H   0  0  0  0  0  0  0  0  0  0  0  0
    8.9942    0.6200    0.0000 H   0  0  0  0  0  0  0  0  0  0  0  0
    9.3233   -1.8100    0.0000 H   0  0  0  0  0  0  0  0  0  0  0  0
   10.7263    0.6200    0.0000 H   0  0  0  0  0  0  0  0  0  0  0  0
   12.1292   -1.8100    0.0000 H   0  0  0  0  0  0  0  0  0  0  0  0
  1 16  1  0  0  0  0
  2 28  1  0  0  0  0
  3 12  2  0  0  0  0
  4 15  2  0  0  0  0
  5  9  1  0  0  0  0
  5 12  1  0  0  0  0
  5 30  1  0  0  0  0
  6 27  2  0  0  0  0
  6 29  1  0  0  0  0
  7  8  1  0  0  0  0
  7 10  2  0  0  0  0
  7 11  1  0  0  0  0
  8  9  2  0  0  0  0
  8 13  1  0  0  0  0
  9 14  1  0  0  0  0
 10 12  1  0  0  0  0
 10 15  1  0  0  0  0
 11 17  2  0  0  0  0
 11 18  1  0  0  0  0
 13 16  2  0  0  0  0
 13 31  1  0  0  0  0
 14 19  2  0  0  0  0
 14 32  1  0  0  0  0
 15 22  1  0  0  0  0
 16 19  1  0  0  0  0
 17 20  1  0  0  0  0
 17 33  1  0  0  0  0
 18 21  2  0  0  0  0
 18 34  1  0  0  0  0
 19 35  1  0  0  0  0
 20 23  2  0  0  0  0
 20 36  1  0  0  0  0
 21 23  1  0  0  0  0
 21 37  1  0  0  0  0
 22 24  2  0  0  0  0
 22 38  1  0  0  0  0
 23 39  1  0  0  0  0
 24 25  1  0  0  0  0
 24 40  1  0  0  0  0
 25 26  2  0  0  0  0
 25 27  1  0  0  0  0
 26 28  1  0  0  0  0
 26 41  1  0  0  0  0
 27 42  1  0  0  0  0
 28 29  2  0  0  0  0
 29 43  1  0  0  0  0
M  END
> <PUBCHEM_COMPOUND_CID>
121241171

> <PUBCHEM_COMPOUND_CANONICALIZED>
1

> <PUBCHEM_CACTVS_COMPLEXITY>
701

> <PUBCHEM_CACTVS_HBOND_ACCEPTOR>
4

> <PUBCHEM_CACTVS_HBOND_DONOR>
1

> <PUBCHEM_CACTVS_ROTATABLE_BOND>
4

> <PUBCHEM_CACTVS_SUBSKEYS>
AAADccB7MQAEAAAAAAAAAAAAAAAAAAAAAAA8YIEAAAAAAACB0AAAHwIQAAAADA7Bmiw8wJLIEACoArV3VACCgCAxByAI2CEoZtgIIPrJk5GEIAhglADIyYcQgMAOAABAIAACAAAAAIBAAAQAAAAAAAAAAA==

> <PUBCHEM_IUPAC_OPENEYE_NAME>
6-chloro-3-[(E)-3-(5-fluoro-3-pyridyl)prop-2-enoyl]-4-phenyl-1H-quinolin-2-one

> <PUBCHEM_IUPAC_CAS_NAME>
6-chloro-3-[(E)-3-(5-fluoro-3-pyridinyl)-1-oxoprop-2-enyl]-4-phenyl-1H-quinolin-2-one

> <PUBCHEM_IUPAC_NAME_MARKUP>
6-chloro-3-[(<I>E</I>)-3-(5-fluoro-3-pyridinyl)prop-2-enoyl]-4-phenyl-1<I>H</I>-quinolin-2-one

> <PUBCHEM_IUPAC_NAME>
6-chloro-3-[(E)-3-(5-fluoro-3-pyridinyl)prop-2-enoyl]-4-phenyl-1H-quinolin-2-one

> <PUBCHEM_IUPAC_SYSTEMATIC_NAME>
6-chloranyl-3-[(E)-3-(5-fluoranyl-3-pyridinyl)prop-2-enoyl]-4-phenyl-1H-quinolin-2-one

> <PUBCHEM_IUPAC_TRADITIONAL_NAME>
6-chloro-3-[(E)-3-(5-fluoro-3-pyridyl)acryloyl]-4-phenyl-carbostyril

> <PUBCHEM_IUPAC_INCHI>
InChI=1S/C23H14ClFN2O2/c24-16-7-8-19-18(11-16)21(15-4-2-1-3-5-15)22(23(29)27-19)20(28)9-6-14-10-17(25)13-26-12-14/h1-13H,(H,27,29)/b9-6+

> <PUBCHEM_IUPAC_INCHIKEY>
VVWGPQZBDQVQRC-RMKNXTFCSA-N

> <PUBCHEM_XLOGP3_AA>
4.1

> <PUBCHEM_EXACT_MASS>
404.0727835

> <PUBCHEM_MOLECULAR_FORMULA>
C23H14ClFN2O2

> <PUBCHEM_MOLECULAR_WEIGHT>
404.8

> <PUBCHEM_SMILES>
C1=CC=C(C=C1)C2=C(C(=O)NC3=C2C=C(C=C3)Cl)C(=O)/C=C/C4=CC(=CN=C4)F

> <PUBCHEM_CONNECTIVITY_SMILES>
C1=CC=C(C=C1)C2=C(C(=O)NC3=C2C=C(C=C3)Cl)C(=O)C=CC4=CC(=CN=C4)F

> <PUBCHEM_CACTVS_TPSA>
59.1

> <PUBCHEM_MONOISOTOPIC_WEIGHT>
404.0727835

> <PUBCHEM_TOTAL_CHARGE>
0

> <PUBCHEM_HEAVY_ATOM_COUNT>
29

> <PUBCHEM_ATOM_DEF_STEREO_COUNT>
0

> <PUBCHEM_ATOM_UDEF_STEREO_COUNT>
0

> <PUBCHEM_BOND_DEF_STEREO_COUNT>
1

> <PUBCHEM_BOND_UDEF_STEREO_COUNT>
0

> <PUBCHEM_ISOTOPIC_ATOM_COUNT>
0

> <PUBCHEM_COMPONENT_COUNT>
1

> <PUBCHEM_CACTVS_TAUTO_COUNT>
-1

> <PUBCHEM_COORDINATE_TYPE>
1
5
255

> <PUBCHEM_BONDANNOTATIONS>
10  12  8
11  17  8
11  18  8
13  16  8
14  19  8
16  19  8
17  20  8
18  21  8
20  23  8
21  23  8
25  26  8
25  27  8
26  28  8
28  29  8
5  12  8
5  9  8
6  27  8
6  29  8
7  10  8
7  8  8
8  13  8
8  9  8
9  14  8

$$$$
