5312125
  -OEChem-10172515072D

 67 69  0     1  0  0  0  0  0999 V2000
    5.9641    4.8047    0.0000 F   0  0  0  0  0  0  0  0  0  0  0  0
    6.3301    6.1708    0.0000 F   0  0  0  0  0  0  0  0  0  0  0  0
    4.9641    6.5368    0.0000 F   0  0  0  0  0  0  0  0  0  0  0  0
   12.4528   -5.9475    0.0000 O   0  0  0  0  0  0  0  0  0  0  0  0
    8.9282   -5.3293    0.0000 O   0  0  0  0  0  0  0  0  0  0  0  0
    4.5981    2.1708    0.0000 O   0  0  0  0  0  0  0  0  0  0  0  0
    4.5981    4.1708    0.0000 O   0  0  0  0  0  0  0  0  0  0  0  0
    9.8744   -3.6340    0.0000 N   0  0  3  0  0  0  0  0  0  0  0  0
    5.4641   -0.3292    0.0000 N   0  0  0  0  0  0  0  0  0  0  0  0
    7.1962   -5.3293    0.0000 N   0  0  0  0  0  0  0  0  0  0  0  0
    8.9282   -3.3293    0.0000 C   0  0  0  0  0  0  0  0  0  0  0  0
   10.4580   -2.8293    0.0000 C   0  0  0  0  0  0  0  0  0  0  0  0
    8.9282   -2.3293    0.0000 C   0  0  0  0  0  0  0  0  0  0  0  0
    9.8744   -2.0245    0.0000 C   0  0  0  0  0  0  0  0  0  0  0  0
   10.1851   -4.5845    0.0000 C   0  0  0  0  0  0  0  0  0  0  0  0
    7.1962   -2.3293    0.0000 C   0  0  0  0  0  0  0  0  0  0  0  0
    8.0622   -3.8293    0.0000 C   0  0  0  0  0  0  0  0  0  0  0  0
    8.0622   -1.8293    0.0000 C   0  0  0  0  0  0  0  0  0  0  0  0
    6.3301   -1.8293    0.0000 C   0  0  0  0  0  0  0  0  0  0  0  0
    7.1962   -3.3293    0.0000 C   0  0  0  0  0  0  0  0  0  0  0  0
    6.3301   -0.8292    0.0000 C   0  0  1  0  0  0  0  0  0  0  0  0
   11.1636   -4.7907    0.0000 C   0  0  0  0  0  0  0  0  0  0  0  0
    8.0622   -4.8293    0.0000 C   0  0  0  0  0  0  0  0  0  0  0  0
    7.1962   -0.3292    0.0000 C   0  0  0  0  0  0  0  0  0  0  0  0
   11.4743   -5.7412    0.0000 C   0  0  0  0  0  0  0  0  0  0  0  0
    5.4641    0.6708    0.0000 C   0  0  0  0  0  0  0  0  0  0  0  0
    4.5981    1.1708    0.0000 C   0  0  0  0  0  0  0  0  0  0  0  0
    3.7321    2.6708    0.0000 C   0  0  0  0  0  0  0  0  0  0  0  0
    3.7321    3.6708    0.0000 C   0  0  0  0  0  0  0  0  0  0  0  0
    2.8660    2.1708    0.0000 C   0  0  0  0  0  0  0  0  0  0  0  0
    2.8660    4.1708    0.0000 C   0  0  0  0  0  0  0  0  0  0  0  0
    2.0000    2.6708    0.0000 C   0  0  0  0  0  0  0  0  0  0  0  0
    2.0000    3.6708    0.0000 C   0  0  0  0  0  0  0  0  0  0  0  0
    4.5981    5.1708    0.0000 C   0  0  0  0  0  0  0  0  0  0  0  0
    5.4641    5.6708    0.0000 C   0  0  0  0  0  0  0  0  0  0  0  0
   10.9189   -3.2440    0.0000 H   0  0  0  0  0  0  0  0  0  0  0  0
   10.9189   -2.4145    0.0000 H   0  0  0  0  0  0  0  0  0  0  0  0
   10.4118   -1.7153    0.0000 H   0  0  0  0  0  0  0  0  0  0  0  0
    9.6234   -1.4576    0.0000 H   0  0  0  0  0  0  0  0  0  0  0  0
    9.5713   -4.6719    0.0000 H   0  0  0  0  0  0  0  0  0  0  0  0
   10.1645   -5.2042    0.0000 H   0  0  0  0  0  0  0  0  0  0  0  0
    8.0622   -1.2093    0.0000 H   0  0  0  0  0  0  0  0  0  0  0  0
    5.7196   -1.7216    0.0000 H   0  0  0  0  0  0  0  0  0  0  0  0
    6.1181   -2.4119    0.0000 H   0  0  0  0  0  0  0  0  0  0  0  0
    6.6592   -3.6393    0.0000 H   0  0  0  0  0  0  0  0  0  0  0  0
    5.7932   -1.1393    0.0000 H   0  0  0  0  0  0  0  0  0  0  0  0
   11.7774   -4.7034    0.0000 H   0  0  0  0  0  0  0  0  0  0  0  0
   11.1842   -4.1711    0.0000 H   0  0  0  0  0  0  0  0  0  0  0  0
    4.9272   -0.6392    0.0000 H   0  0  0  0  0  0  0  0  0  0  0  0
    7.5062   -0.8662    0.0000 H   0  0  0  0  0  0  0  0  0  0  0  0
    7.7331   -0.0192    0.0000 H   0  0  0  0  0  0  0  0  0  0  0  0
    6.8862    0.2077    0.0000 H   0  0  0  0  0  0  0  0  0  0  0  0
   10.8604   -5.8286    0.0000 H   0  0  0  0  0  0  0  0  0  0  0  0
   11.4537   -6.3609    0.0000 H   0  0  0  0  0  0  0  0  0  0  0  0
    6.0747    0.5631    0.0000 H   0  0  0  0  0  0  0  0  0  0  0  0
    5.6762    1.2534    0.0000 H   0  0  0  0  0  0  0  0  0  0  0  0
    3.9875    1.2784    0.0000 H   0  0  0  0  0  0  0  0  0  0  0  0
    4.3860    0.5881    0.0000 H   0  0  0  0  0  0  0  0  0  0  0  0
    7.1962   -5.9493    0.0000 H   0  0  0  0  0  0  0  0  0  0  0  0
    6.6592   -5.0193    0.0000 H   0  0  0  0  0  0  0  0  0  0  0  0
   12.6454   -6.5368    0.0000 H   0  0  0  0  0  0  0  0  0  0  0  0
    2.8660    1.5508    0.0000 H   0  0  0  0  0  0  0  0  0  0  0  0
    2.8660    4.7908    0.0000 H   0  0  0  0  0  0  0  0  0  0  0  0
    1.4631    2.3608    0.0000 H   0  0  0  0  0  0  0  0  0  0  0  0
    1.4631    3.9808    0.0000 H   0  0  0  0  0  0  0  0  0  0  0  0
    4.3860    5.7534    0.0000 H   0  0  0  0  0  0  0  0  0  0  0  0
    3.9875    5.0631    0.0000 H   0  0  0  0  0  0  0  0  0  0  0  0
  1 35  1  0  0  0  0
  2 35  1  0  0  0  0
  3 35  1  0  0  0  0
  4 25  1  0  0  0  0
  4 61  1  0  0  0  0
  5 23  2  0  0  0  0
  6 27  1  0  0  0  0
  6 28  1  0  0  0  0
  7 29  1  0  0  0  0
  7 34  1  0  0  0  0
  8 11  1  0  0  0  0
  8 12  1  0  0  0  0
  8 15  1  0  0  0  0
 21  9  1  6  0  0  0
  9 26  1  0  0  0  0
  9 49  1  0  0  0  0
 10 23  1  0  0  0  0
 10 59  1  0  0  0  0
 10 60  1  0  0  0  0
 11 13  2  0  0  0  0
 11 17  1  0  0  0  0
 12 14  1  0  0  0  0
 12 36  1  0  0  0  0
 12 37  1  0  0  0  0
 13 14  1  0  0  0  0
 13 18  1  0  0  0  0
 14 38  1  0  0  0  0
 14 39  1  0  0  0  0
 15 22  1  0  0  0  0
 15 40  1  0  0  0  0
 15 41  1  0  0  0  0
 16 18  2  0  0  0  0
 16 19  1  0  0  0  0
 16 20  1  0  0  0  0
 17 20  2  0  0  0  0
 17 23  1  0  0  0  0
 18 42  1  0  0  0  0
 19 21  1  0  0  0  0
 19 43  1  0  0  0  0
 19 44  1  0  0  0  0
 20 45  1  0  0  0  0
 21 24  1  0  0  0  0
 21 46  1  0  0  0  0
 22 25  1  0  0  0  0
 22 47  1  0  0  0  0
 22 48  1  0  0  0  0
 24 50  1  0  0  0  0
 24 51  1  0  0  0  0
 24 52  1  0  0  0  0
 25 53  1  0  0  0  0
 25 54  1  0  0  0  0
 26 27  1  0  0  0  0
 26 55  1  0  0  0  0
 26 56  1  0  0  0  0
 27 57  1  0  0  0  0
 27 58  1  0  0  0  0
 28 29  1  0  0  0  0
 28 30  2  0  0  0  0
 29 31  2  0  0  0  0
 30 32  1  0  0  0  0
 30 62  1  0  0  0  0
 31 33  1  0  0  0  0
 31 63  1  0  0  0  0
 32 33  2  0  0  0  0
 32 64  1  0  0  0  0
 33 65  1  0  0  0  0
 34 35  1  0  0  0  0
 34 66  1  0  0  0  0
 34 67  1  0  0  0  0
M  END
> <PUBCHEM_COMPOUND_CID>
5312125

> <PUBCHEM_COMPOUND_CANONICALIZED>
1

> <PUBCHEM_CACTVS_COMPLEXITY>
654

> <PUBCHEM_CACTVS_HBOND_ACCEPTOR>
9

> <PUBCHEM_CACTVS_HBOND_DONOR>
3

> <PUBCHEM_CACTVS_ROTATABLE_BOND>
13

> <PUBCHEM_CACTVS_SUBSKEYS>
AAADcfB7OYAAAAAAAAAAAAAAAAAAAWAAAAAwYAAAAAAAAFgBQAAAHwAQCAAADCzhmBYyxoPABgCIAiVSUACCCAAlIAAIiIEOzMgPNjrE9ZuHearm0BHa6ceYyMCOCAACAAACQAAQAAQAAASAAAAAAAAAAA==

> <PUBCHEM_IUPAC_OPENEYE_NAME>
1-(3-hydroxypropyl)-5-[(2R)-2-[2-[2-(2,2,2-trifluoroethoxy)phenoxy]ethylamino]propyl]indoline-7-carboxamide

> <PUBCHEM_IUPAC_CAS_NAME>
1-(3-hydroxypropyl)-5-[(2R)-2-[2-[2-(2,2,2-trifluoroethoxy)phenoxy]ethylamino]propyl]-2,3-dihydroindole-7-carboxamide

> <PUBCHEM_IUPAC_NAME_MARKUP>
1-(3-hydroxypropyl)-5-[(2<I>R</I>)-2-[2-[2-(2,2,2-trifluoroethoxy)phenoxy]ethylamino]propyl]-2,3-dihydroindole-7-carboxamide

> <PUBCHEM_IUPAC_NAME>
1-(3-hydroxypropyl)-5-[(2R)-2-[2-[2-(2,2,2-trifluoroethoxy)phenoxy]ethylamino]propyl]-2,3-dihydroindole-7-carboxamide

> <PUBCHEM_IUPAC_SYSTEMATIC_NAME>
1-(3-oxidanylpropyl)-5-[(2R)-2-[2-[2-[2,2,2-tris(fluoranyl)ethoxy]phenoxy]ethylamino]propyl]-2,3-dihydroindole-7-carboxamide

> <PUBCHEM_IUPAC_TRADITIONAL_NAME>
1-(3-hydroxypropyl)-5-[(2R)-2-[2-[2-(2,2,2-trifluoroethoxy)phenoxy]ethylamino]propyl]indoline-7-carboxamide

> <PUBCHEM_IUPAC_INCHI>
InChI=1S/C25H32F3N3O4/c1-17(30-8-12-34-21-5-2-3-6-22(21)35-16-25(26,27)28)13-18-14-19-7-10-31(9-4-11-32)23(19)20(15-18)24(29)33/h2-3,5-6,14-15,17,30,32H,4,7-13,16H2,1H3,(H2,29,33)/t17-/m1/s1

> <PUBCHEM_IUPAC_INCHIKEY>
PNCPYILNMDWPEY-QGZVFWFLSA-N

> <PUBCHEM_XLOGP3_AA>
3.6

> <PUBCHEM_EXACT_MASS>
495.23449100

> <PUBCHEM_MOLECULAR_FORMULA>
C25H32F3N3O4

> <PUBCHEM_MOLECULAR_WEIGHT>
495.5

> <PUBCHEM_SMILES>
C[C@H](CC1=CC2=C(C(=C1)C(=O)N)N(CC2)CCCO)NCCOC3=CC=CC=C3OCC(F)(F)F

> <PUBCHEM_CONNECTIVITY_SMILES>
CC(CC1=CC2=C(C(=C1)C(=O)N)N(CC2)CCCO)NCCOC3=CC=CC=C3OCC(F)(F)F

> <PUBCHEM_CACTVS_TPSA>
97.1

> <PUBCHEM_MONOISOTOPIC_WEIGHT>
495.23449100

> <PUBCHEM_TOTAL_CHARGE>
0

> <PUBCHEM_HEAVY_ATOM_COUNT>
35

> <PUBCHEM_ATOM_DEF_STEREO_COUNT>
1

> <PUBCHEM_ATOM_UDEF_STEREO_COUNT>
0

> <PUBCHEM_BOND_DEF_STEREO_COUNT>
0

> <PUBCHEM_BOND_UDEF_STEREO_COUNT>
0

> <PUBCHEM_ISOTOPIC_ATOM_COUNT>
0

> <PUBCHEM_COMPONENT_COUNT>
1

> <PUBCHEM_CACTVS_TAUTO_COUNT>
-1

> <PUBCHEM_COORDINATE_TYPE>
1
5
255

> <PUBCHEM_BONDANNOTATIONS>
11  13  8
11  17  8
13  18  8
16  18  8
16  20  8
17  20  8
28  29  8
28  30  8
29  31  8
30  32  8
31  33  8
32  33  8
21  9  6

$$$$
