52920501
  -OEChem-10172515092D

 62 65  0     0  0  0  0  0  0999 V2000
    4.5981   -1.5000    0.0000 S   0  0  0  0  0  0  0  0  0  0  0  0
    5.0981   -2.3660    0.0000 O   0  0  0  0  0  0  0  0  0  0  0  0
    4.0981   -0.6340    0.0000 O   0  0  0  0  0  0  0  0  0  0  0  0
    8.9282    5.0000    0.0000 O   0  0  0  0  0  0  0  0  0  0  0  0
    3.7321   -2.0000    0.0000 N   0  0  0  0  0  0  0  0  0  0  0  0
    2.8660   -4.5000    0.0000 N   0  0  0  0  0  0  0  0  0  0  0  0
   12.4725    3.1953    0.0000 N   0  0  0  0  0  0  0  0  0  0  0  0
    7.1962    2.0000    0.0000 N   0  0  0  0  0  0  0  0  0  0  0  0
    8.0622    3.5000    0.0000 N   0  0  0  0  0  0  0  0  0  0  0  0
    6.3301    3.5000    0.0000 N   0  0  0  0  0  0  0  0  0  0  0  0
    5.4641   -1.0000    0.0000 C   0  0  0  0  0  0  0  0  0  0  0  0
    3.7321   -3.0000    0.0000 C   0  0  0  0  0  0  0  0  0  0  0  0
    2.8660   -3.5000    0.0000 C   0  0  0  0  0  0  0  0  0  0  0  0
    5.4641    0.0000    0.0000 C   0  0  0  0  0  0  0  0  0  0  0  0
    6.3301    0.5000    0.0000 C   0  0  0  0  0  0  0  0  0  0  0  0
   11.5263    4.5000    0.0000 C   0  0  0  0  0  0  0  0  0  0  0  0
   11.5263    3.5000    0.0000 C   0  0  0  0  0  0  0  0  0  0  0  0
    4.5981    0.5000    0.0000 C   0  0  0  0  0  0  0  0  0  0  0  0
    6.3301    1.5000    0.0000 C   0  0  0  0  0  0  0  0  0  0  0  0
   13.0561    4.0000    0.0000 C   0  0  0  0  0  0  0  0  0  0  0  0
   12.4725    4.8047    0.0000 C   0  0  0  0  0  0  0  0  0  0  0  0
   10.6603    5.0000    0.0000 C   0  0  0  0  0  0  0  0  0  0  0  0
    2.0000   -5.0000    0.0000 C   0  0  0  0  0  0  0  0  0  0  0  0
    3.7321   -5.0000    0.0000 C   0  0  0  0  0  0  0  0  0  0  0  0
    4.5981    1.5000    0.0000 C   0  0  0  0  0  0  0  0  0  0  0  0
    5.4641    2.0000    0.0000 C   0  0  0  0  0  0  0  0  0  0  0  0
   10.6603    3.0000    0.0000 C   0  0  0  0  0  0  0  0  0  0  0  0
    9.7942    4.5000    0.0000 C   0  0  0  0  0  0  0  0  0  0  0  0
    9.7942    3.5000    0.0000 C   0  0  0  0  0  0  0  0  0  0  0  0
   14.0561    4.0000    0.0000 C   0  0  0  0  0  0  0  0  0  0  0  0
    7.1962    3.0000    0.0000 C   0  0  0  0  0  0  0  0  0  0  0  0
    8.0622    4.5000    0.0000 C   0  0  0  0  0  0  0  0  0  0  0  0
    7.1962    5.0000    0.0000 C   0  0  0  0  0  0  0  0  0  0  0  0
    6.3301    4.5000    0.0000 C   0  0  0  0  0  0  0  0  0  0  0  0
    5.6762   -1.5826    0.0000 H   0  0  0  0  0  0  0  0  0  0  0  0
    6.0747   -0.8923    0.0000 H   0  0  0  0  0  0  0  0  0  0  0  0
    3.9441   -3.5826    0.0000 H   0  0  0  0  0  0  0  0  0  0  0  0
    4.3426   -2.8923    0.0000 H   0  0  0  0  0  0  0  0  0  0  0  0
    2.6540   -2.9174    0.0000 H   0  0  0  0  0  0  0  0  0  0  0  0
    2.2554   -3.6077    0.0000 H   0  0  0  0  0  0  0  0  0  0  0  0
    3.1951   -1.6900    0.0000 H   0  0  0  0  0  0  0  0  0  0  0  0
    6.8671    0.1900    0.0000 H   0  0  0  0  0  0  0  0  0  0  0  0
    4.0611    0.1900    0.0000 H   0  0  0  0  0  0  0  0  0  0  0  0
   12.6651    5.3941    0.0000 H   0  0  0  0  0  0  0  0  0  0  0  0
   12.6651    2.6060    0.0000 H   0  0  0  0  0  0  0  0  0  0  0  0
   10.6603    5.6200    0.0000 H   0  0  0  0  0  0  0  0  0  0  0  0
    1.6900   -4.4631    0.0000 H   0  0  0  0  0  0  0  0  0  0  0  0
    1.4631   -5.3100    0.0000 H   0  0  0  0  0  0  0  0  0  0  0  0
    2.3100   -5.5369    0.0000 H   0  0  0  0  0  0  0  0  0  0  0  0
    3.4221   -5.5369    0.0000 H   0  0  0  0  0  0  0  0  0  0  0  0
    4.2690   -5.3100    0.0000 H   0  0  0  0  0  0  0  0  0  0  0  0
    4.0421   -4.4631    0.0000 H   0  0  0  0  0  0  0  0  0  0  0  0
    4.0611    1.8100    0.0000 H   0  0  0  0  0  0  0  0  0  0  0  0
    5.4641    2.6200    0.0000 H   0  0  0  0  0  0  0  0  0  0  0  0
   10.6603    2.3800    0.0000 H   0  0  0  0  0  0  0  0  0  0  0  0
    9.2573    3.1900    0.0000 H   0  0  0  0  0  0  0  0  0  0  0  0
    7.7331    1.6900    0.0000 H   0  0  0  0  0  0  0  0  0  0  0  0
   14.0561    3.3800    0.0000 H   0  0  0  0  0  0  0  0  0  0  0  0
   14.6761    4.0000    0.0000 H   0  0  0  0  0  0  0  0  0  0  0  0
   14.0561    4.6200    0.0000 H   0  0  0  0  0  0  0  0  0  0  0  0
    7.1962    5.6200    0.0000 H   0  0  0  0  0  0  0  0  0  0  0  0
    5.7932    4.8100    0.0000 H   0  0  0  0  0  0  0  0  0  0  0  0
  1  2  2  0  0  0  0
  1  3  2  0  0  0  0
  1  5  1  0  0  0  0
  1 11  1  0  0  0  0
  4 28  1  0  0  0  0
  4 32  1  0  0  0  0
  5 12  1  0  0  0  0
  5 41  1  0  0  0  0
  6 13  1  0  0  0  0
  6 23  1  0  0  0  0
  6 24  1  0  0  0  0
  7 17  1  0  0  0  0
  7 20  1  0  0  0  0
  7 45  1  0  0  0  0
  8 19  1  0  0  0  0
  8 31  1  0  0  0  0
  8 57  1  0  0  0  0
  9 31  1  0  0  0  0
  9 32  2  0  0  0  0
 10 31  2  0  0  0  0
 10 34  1  0  0  0  0
 11 14  1  0  0  0  0
 11 35  1  0  0  0  0
 11 36  1  0  0  0  0
 12 13  1  0  0  0  0
 12 37  1  0  0  0  0
 12 38  1  0  0  0  0
 13 39  1  0  0  0  0
 13 40  1  0  0  0  0
 14 15  2  0  0  0  0
 14 18  1  0  0  0  0
 15 19  1  0  0  0  0
 15 42  1  0  0  0  0
 16 17  2  0  0  0  0
 16 21  1  0  0  0  0
 16 22  1  0  0  0  0
 17 27  1  0  0  0  0
 18 25  2  0  0  0  0
 18 43  1  0  0  0  0
 19 26  2  0  0  0  0
 20 21  2  0  0  0  0
 20 30  1  0  0  0  0
 21 44  1  0  0  0  0
 22 28  2  0  0  0  0
 22 46  1  0  0  0  0
 23 47  1  0  0  0  0
 23 48  1  0  0  0  0
 23 49  1  0  0  0  0
 24 50  1  0  0  0  0
 24 51  1  0  0  0  0
 24 52  1  0  0  0  0
 25 26  1  0  0  0  0
 25 53  1  0  0  0  0
 26 54  1  0  0  0  0
 27 29  2  0  0  0  0
 27 55  1  0  0  0  0
 28 29  1  0  0  0  0
 29 56  1  0  0  0  0
 30 58  1  0  0  0  0
 30 59  1  0  0  0  0
 30 60  1  0  0  0  0
 32 33  1  0  0  0  0
 33 34  2  0  0  0  0
 33 61  1  0  0  0  0
 34 62  1  0  0  0  0
M  END
> <PUBCHEM_COMPOUND_CID>
52920501

> <PUBCHEM_COMPOUND_CANONICALIZED>
1

> <PUBCHEM_CACTVS_COMPLEXITY>
733

> <PUBCHEM_CACTVS_HBOND_ACCEPTOR>
8

> <PUBCHEM_CACTVS_HBOND_DONOR>
3

> <PUBCHEM_CACTVS_ROTATABLE_BOND>
10

> <PUBCHEM_CACTVS_SUBSKEYS>
AAADceB7sABAAAAAAAAAAAAAAAAAAWAAAAA8YIAAAAAAAFgB/AAAHgQQQAAADAzF3gS/1vfJlAKgAzRnZHDCiCkxIqAJ2aA+bJiMbuLE+duePCju0BvI6Cew0LMOAEABQAACAAAAgAKAAAQAAAAAAAAAAA==

> <PUBCHEM_IUPAC_OPENEYE_NAME>
N-[2-(dimethylamino)ethyl]-1-[3-[[4-[(2-methyl-1H-indol-5-yl)oxy]pyrimidin-2-yl]amino]phenyl]methanesulfonamide

> <PUBCHEM_IUPAC_CAS_NAME>
N-[2-(dimethylamino)ethyl]-1-[3-[[4-[(2-methyl-1H-indol-5-yl)oxy]-2-pyrimidinyl]amino]phenyl]methanesulfonamide

> <PUBCHEM_IUPAC_NAME_MARKUP>
<I>N</I>-[2-(dimethylamino)ethyl]-1-[3-[[4-[(2-methyl-1<I>H</I>-indol-5-yl)oxy]pyrimidin-2-yl]amino]phenyl]methanesulfonamide

> <PUBCHEM_IUPAC_NAME>
N-[2-(dimethylamino)ethyl]-1-[3-[[4-[(2-methyl-1H-indol-5-yl)oxy]pyrimidin-2-yl]amino]phenyl]methanesulfonamide

> <PUBCHEM_IUPAC_SYSTEMATIC_NAME>
N-[2-(dimethylamino)ethyl]-1-[3-[[4-[(2-methyl-1H-indol-5-yl)oxy]pyrimidin-2-yl]amino]phenyl]methanesulfonamide

> <PUBCHEM_IUPAC_TRADITIONAL_NAME>
N-[2-(dimethylamino)ethyl]-1-[3-[[4-[(2-methyl-1H-indol-5-yl)oxy]pyrimidin-2-yl]amino]phenyl]methanesulfonamide

> <PUBCHEM_IUPAC_INCHI>
InChI=1S/C24H28N6O3S/c1-17-13-19-15-21(7-8-22(19)27-17)33-23-9-10-25-24(29-23)28-20-6-4-5-18(14-20)16-34(31,32)26-11-12-30(2)3/h4-10,13-15,26-27H,11-12,16H2,1-3H3,(H,25,28,29)

> <PUBCHEM_IUPAC_INCHIKEY>
TTZSNFLLYPYKIL-UHFFFAOYSA-N

> <PUBCHEM_XLOGP3_AA>
3.4

> <PUBCHEM_EXACT_MASS>
480.19435995

> <PUBCHEM_MOLECULAR_FORMULA>
C24H28N6O3S

> <PUBCHEM_MOLECULAR_WEIGHT>
480.6

> <PUBCHEM_SMILES>
CC1=CC2=C(N1)C=CC(=C2)OC3=NC(=NC=C3)NC4=CC=CC(=C4)CS(=O)(=O)NCCN(C)C

> <PUBCHEM_CONNECTIVITY_SMILES>
CC1=CC2=C(N1)C=CC(=C2)OC3=NC(=NC=C3)NC4=CC=CC(=C4)CS(=O)(=O)NCCN(C)C

> <PUBCHEM_CACTVS_TPSA>
121

> <PUBCHEM_MONOISOTOPIC_WEIGHT>
480.19435995

> <PUBCHEM_TOTAL_CHARGE>
0

> <PUBCHEM_HEAVY_ATOM_COUNT>
34

> <PUBCHEM_ATOM_DEF_STEREO_COUNT>
0

> <PUBCHEM_ATOM_UDEF_STEREO_COUNT>
0

> <PUBCHEM_BOND_DEF_STEREO_COUNT>
0

> <PUBCHEM_BOND_UDEF_STEREO_COUNT>
0

> <PUBCHEM_ISOTOPIC_ATOM_COUNT>
0

> <PUBCHEM_COMPONENT_COUNT>
1

> <PUBCHEM_CACTVS_TAUTO_COUNT>
-1

> <PUBCHEM_COORDINATE_TYPE>
1
5
255

> <PUBCHEM_BONDANNOTATIONS>
10  31  8
10  34  8
14  15  8
14  18  8
15  19  8
16  17  8
16  21  8
16  22  8
17  27  8
18  25  8
19  26  8
20  21  8
22  28  8
25  26  8
27  29  8
28  29  8
32  33  8
33  34  8
7  17  8
7  20  8
9  31  8
9  32  8

$$$$
