451417
  -OEChem-10172515072D

 97 97  0     1  0  0  0  0  0999 V2000
    8.5991    2.3450    0.0000 O   0  0  0  0  0  0  0  0  0  0  0  0
    8.5991    1.3450    0.0000 O   0  0  0  0  0  0  0  0  0  0  0  0
    9.4651   -2.1550    0.0000 O   0  0  0  0  0  0  0  0  0  0  0  0
    9.4651    5.8450    0.0000 O   0  0  0  0  0  0  0  0  0  0  0  0
   12.9292    0.8450    0.0000 O   0  0  0  0  0  0  0  0  0  0  0  0
    9.4651   -3.1550    0.0000 O   0  0  0  0  0  0  0  0  0  0  0  0
   12.0632    2.3450    0.0000 O   0  0  0  0  0  0  0  0  0  0  0  0
    8.5991   -4.6550    0.0000 O   0  0  0  0  0  0  0  0  0  0  0  0
    6.8671   -7.6550    0.0000 O   0  0  0  0  0  0  0  0  0  0  0  0
    9.4651   -0.1550    0.0000 N   0  0  0  0  0  0  0  0  0  0  0  0
   10.3312    2.3450    0.0000 N   0  0  0  0  0  0  0  0  0  0  0  0
    8.5991    4.3450    0.0000 N   0  0  0  0  0  0  0  0  0  0  0  0
    7.7331   -2.1550    0.0000 N   0  0  0  0  0  0  0  0  0  0  0  0
    7.7331    6.8450    0.0000 N   0  0  0  0  0  0  0  0  0  0  0  0
   12.0632    7.3450    0.0000 N   0  0  0  0  0  0  0  0  0  0  0  0
    4.2690    5.8450    0.0000 N   0  0  0  0  0  0  0  0  0  0  0  0
    2.5369    5.8450    0.0000 N   0  0  0  0  0  0  0  0  0  0  0  0
    3.4030    4.3450    0.0000 N   0  0  0  0  0  0  0  0  0  0  0  0
    8.5991   -0.6550    0.0000 C   0  0  1  0  0  0  0  0  0  0  0  0
    9.4651    3.8450    0.0000 C   0  0  1  0  0  0  0  0  0  0  0  0
    7.7331   -0.1550    0.0000 C   0  0  0  0  0  0  0  0  0  0  0  0
   10.3312    4.3450    0.0000 C   0  0  0  0  0  0  0  0  0  0  0  0
   10.3312    1.3450    0.0000 C   0  0  2  0  0  0  0  0  0  0  0  0
   10.3312    5.3450    0.0000 C   0  0  0  0  0  0  0  0  0  0  0  0
    9.4651    2.8450    0.0000 C   0  0  0  0  0  0  0  0  0  0  0  0
    9.4651    0.8450    0.0000 C   0  0  0  0  0  0  0  0  0  0  0  0
    8.5991   -1.6550    0.0000 C   0  0  0  0  0  0  0  0  0  0  0  0
   11.1972    5.8450    0.0000 C   0  0  0  0  0  0  0  0  0  0  0  0
    7.7331    0.8450    0.0000 C   0  0  0  0  0  0  0  0  0  0  0  0
    6.8671   -0.6550    0.0000 C   0  0  0  0  0  0  0  0  0  0  0  0
   11.1972    0.8450    0.0000 C   0  0  0  0  0  0  0  0  0  0  0  0
    7.7331    5.8450    0.0000 C   0  0  2  0  0  0  0  0  0  0  0  0
    8.5991    5.3450    0.0000 C   0  0  0  0  0  0  0  0  0  0  0  0
    7.7331   -3.1550    0.0000 C   0  0  1  0  0  0  0  0  0  0  0  0
    6.8671    5.3450    0.0000 C   0  0  0  0  0  0  0  0  0  0  0  0
   11.1972    6.8450    0.0000 C   0  0  0  0  0  0  0  0  0  0  0  0
    6.8671   -3.6550    0.0000 C   0  0  0  0  0  0  0  0  0  0  0  0
    6.0010    5.8450    0.0000 C   0  0  0  0  0  0  0  0  0  0  0  0
   12.0632    1.3450    0.0000 C   0  0  0  0  0  0  0  0  0  0  0  0
    6.8671   -4.6550    0.0000 C   0  0  0  0  0  0  0  0  0  0  0  0
    5.1350    5.3450    0.0000 C   0  0  0  0  0  0  0  0  0  0  0  0
    8.5991   -3.6550    0.0000 C   0  0  0  0  0  0  0  0  0  0  0  0
    7.7331   -5.1550    0.0000 C   0  0  0  0  0  0  0  0  0  0  0  0
    6.0010   -5.1550    0.0000 C   0  0  0  0  0  0  0  0  0  0  0  0
    7.7331   -6.1550    0.0000 C   0  0  0  0  0  0  0  0  0  0  0  0
    6.0010   -6.1550    0.0000 C   0  0  0  0  0  0  0  0  0  0  0  0
    6.8671   -6.6550    0.0000 C   0  0  0  0  0  0  0  0  0  0  0  0
    3.4030    5.3450    0.0000 C   0  0  0  0  0  0  0  0  0  0  0  0
    8.5991   -0.0350    0.0000 H   0  0  0  0  0  0  0  0  0  0  0  0
    9.4651    4.4650    0.0000 H   0  0  0  0  0  0  0  0  0  0  0  0
    7.7331   -0.7750    0.0000 H   0  0  0  0  0  0  0  0  0  0  0  0
   10.5432    3.7624    0.0000 H   0  0  0  0  0  0  0  0  0  0  0  0
   10.9417    4.4527    0.0000 H   0  0  0  0  0  0  0  0  0  0  0  0
   10.8681    1.6550    0.0000 H   0  0  0  0  0  0  0  0  0  0  0  0
   10.1191    5.9276    0.0000 H   0  0  0  0  0  0  0  0  0  0  0  0
    9.7206    5.2373    0.0000 H   0  0  0  0  0  0  0  0  0  0  0  0
   10.0021   -0.4650    0.0000 H   0  0  0  0  0  0  0  0  0  0  0  0
   10.8681    2.6550    0.0000 H   0  0  0  0  0  0  0  0  0  0  0  0
    8.0622    4.0350    0.0000 H   0  0  0  0  0  0  0  0  0  0  0  0
   11.4092    5.2624    0.0000 H   0  0  0  0  0  0  0  0  0  0  0  0
   11.8078    5.9527    0.0000 H   0  0  0  0  0  0  0  0  0  0  0  0
    8.3531    0.8450    0.0000 H   0  0  0  0  0  0  0  0  0  0  0  0
    7.7331    1.4650    0.0000 H   0  0  0  0  0  0  0  0  0  0  0  0
    7.1131    0.8450    0.0000 H   0  0  0  0  0  0  0  0  0  0  0  0
    6.5571   -0.1181    0.0000 H   0  0  0  0  0  0  0  0  0  0  0  0
    6.3301   -0.9650    0.0000 H   0  0  0  0  0  0  0  0  0  0  0  0
    7.1771   -1.1919    0.0000 H   0  0  0  0  0  0  0  0  0  0  0  0
   10.7987    0.3701    0.0000 H   0  0  0  0  0  0  0  0  0  0  0  0
   11.5957    0.3701    0.0000 H   0  0  0  0  0  0  0  0  0  0  0  0
    8.2700    6.1550    0.0000 H   0  0  0  0  0  0  0  0  0  0  0  0
    8.2700   -2.8450    0.0000 H   0  0  0  0  0  0  0  0  0  0  0  0
    6.4685    4.8701    0.0000 H   0  0  0  0  0  0  0  0  0  0  0  0
    7.2656    4.8701    0.0000 H   0  0  0  0  0  0  0  0  0  0  0  0
    7.1962   -1.8450    0.0000 H   0  0  0  0  0  0  0  0  0  0  0  0
   10.9851    7.4276    0.0000 H   0  0  0  0  0  0  0  0  0  0  0  0
   10.5866    6.7373    0.0000 H   0  0  0  0  0  0  0  0  0  0  0  0
    6.6550   -3.0724    0.0000 H   0  0  0  0  0  0  0  0  0  0  0  0
    6.2565   -3.7627    0.0000 H   0  0  0  0  0  0  0  0  0  0  0  0
    6.3996    6.3200    0.0000 H   0  0  0  0  0  0  0  0  0  0  0  0
    5.6025    6.3200    0.0000 H   0  0  0  0  0  0  0  0  0  0  0  0
    7.1962    7.1550    0.0000 H   0  0  0  0  0  0  0  0  0  0  0  0
    8.2700    7.1550    0.0000 H   0  0  0  0  0  0  0  0  0  0  0  0
    4.7365    4.8701    0.0000 H   0  0  0  0  0  0  0  0  0  0  0  0
    5.5335    4.8701    0.0000 H   0  0  0  0  0  0  0  0  0  0  0  0
   12.0632    7.9650    0.0000 H   0  0  0  0  0  0  0  0  0  0  0  0
   12.6002    7.0350    0.0000 H   0  0  0  0  0  0  0  0  0  0  0  0
    8.2700   -4.8450    0.0000 H   0  0  0  0  0  0  0  0  0  0  0  0
    5.4641   -4.8450    0.0000 H   0  0  0  0  0  0  0  0  0  0  0  0
   13.4662    1.1550    0.0000 H   0  0  0  0  0  0  0  0  0  0  0  0
    8.2700   -6.4650    0.0000 H   0  0  0  0  0  0  0  0  0  0  0  0
    5.4641   -6.4650    0.0000 H   0  0  0  0  0  0  0  0  0  0  0  0
   10.0021   -3.4650    0.0000 H   0  0  0  0  0  0  0  0  0  0  0  0
    6.3301   -7.9650    0.0000 H   0  0  0  0  0  0  0  0  0  0  0  0
    2.0000    5.5350    0.0000 H   0  0  0  0  0  0  0  0  0  0  0  0
    2.5369    6.4650    0.0000 H   0  0  0  0  0  0  0  0  0  0  0  0
    2.8660    4.0350    0.0000 H   0  0  0  0  0  0  0  0  0  0  0  0
    3.9399    4.0350    0.0000 H   0  0  0  0  0  0  0  0  0  0  0  0
  1 25  2  0  0  0  0
  2 26  2  0  0  0  0
  3 27  2  0  0  0  0
  4 33  2  0  0  0  0
  5 39  1  0  0  0  0
  5 89  1  0  0  0  0
  6 42  1  0  0  0  0
  6 92  1  0  0  0  0
  7 39  2  0  0  0  0
  8 42  2  0  0  0  0
  9 47  1  0  0  0  0
  9 93  1  0  0  0  0
 19 10  1  6  0  0  0
 10 26  1  0  0  0  0
 10 57  1  0  0  0  0
 23 11  1  1  0  0  0
 11 25  1  0  0  0  0
 11 58  1  0  0  0  0
 20 12  1  1  0  0  0
 12 33  1  0  0  0  0
 12 59  1  0  0  0  0
 13 27  1  0  0  0  0
 34 13  1  6  0  0  0
 13 74  1  0  0  0  0
 32 14  1  6  0  0  0
 14 81  1  0  0  0  0
 14 82  1  0  0  0  0
 15 36  1  0  0  0  0
 15 85  1  0  0  0  0
 15 86  1  0  0  0  0
 16 41  1  0  0  0  0
 16 48  2  0  0  0  0
 17 48  1  0  0  0  0
 17 94  1  0  0  0  0
 17 95  1  0  0  0  0
 18 48  1  0  0  0  0
 18 96  1  0  0  0  0
 18 97  1  0  0  0  0
 19 21  1  0  0  0  0
 19 27  1  0  0  0  0
 19 49  1  0  0  0  0
 20 22  1  0  0  0  0
 20 25  1  0  0  0  0
 20 50  1  0  0  0  0
 21 29  1  0  0  0  0
 21 30  1  0  0  0  0
 21 51  1  0  0  0  0
 22 24  1  0  0  0  0
 22 52  1  0  0  0  0
 22 53  1  0  0  0  0
 23 26  1  0  0  0  0
 23 31  1  0  0  0  0
 23 54  1  0  0  0  0
 24 28  1  0  0  0  0
 24 55  1  0  0  0  0
 24 56  1  0  0  0  0
 28 36  1  0  0  0  0
 28 60  1  0  0  0  0
 28 61  1  0  0  0  0
 29 62  1  0  0  0  0
 29 63  1  0  0  0  0
 29 64  1  0  0  0  0
 30 65  1  0  0  0  0
 30 66  1  0  0  0  0
 30 67  1  0  0  0  0
 31 39  1  0  0  0  0
 31 68  1  0  0  0  0
 31 69  1  0  0  0  0
 32 33  1  0  0  0  0
 32 35  1  0  0  0  0
 32 70  1  0  0  0  0
 34 37  1  0  0  0  0
 34 42  1  0  0  0  0
 34 71  1  0  0  0  0
 35 38  1  0  0  0  0
 35 72  1  0  0  0  0
 35 73  1  0  0  0  0
 36 75  1  0  0  0  0
 36 76  1  0  0  0  0
 37 40  1  0  0  0  0
 37 77  1  0  0  0  0
 37 78  1  0  0  0  0
 38 41  1  0  0  0  0
 38 79  1  0  0  0  0
 38 80  1  0  0  0  0
 40 43  2  0  0  0  0
 40 44  1  0  0  0  0
 41 83  1  0  0  0  0
 41 84  1  0  0  0  0
 43 45  1  0  0  0  0
 43 87  1  0  0  0  0
 44 46  2  0  0  0  0
 44 88  1  0  0  0  0
 45 47  2  0  0  0  0
 45 90  1  0  0  0  0
 46 47  1  0  0  0  0
 46 91  1  0  0  0  0
M  END
> <PUBCHEM_COMPOUND_CID>
451417

> <PUBCHEM_COMPOUND_CANONICALIZED>
1

> <PUBCHEM_CACTVS_COMPLEXITY>
1110

> <PUBCHEM_CACTVS_HBOND_ACCEPTOR>
12

> <PUBCHEM_CACTVS_HBOND_DONOR>
11

> <PUBCHEM_CACTVS_ROTATABLE_BOND>
22

> <PUBCHEM_CACTVS_SUBSKEYS>
AAADcfB7/AAAAAAAAAAAAAAAAAAAAAAAAAAwAAAAAAAAAAABAAAAHgAQCAAADSzBmAQzDoLAAgCoAiHSPAACAAEgIAAIiIGOCIgKZjqCkTOUcAAm1hGYmAe/yaCOIAAAAAAAAABAAAAAAAAAAAAAAAAAAA==

> <PUBCHEM_IUPAC_OPENEYE_NAME>
(3S)-3-[[(2S)-6-amino-2-[[(2S)-2-amino-5-guanidino-pentanoyl]amino]hexanoyl]amino]-4-[[(1S)-1-[[(1S)-1-carboxy-2-(4-hydroxyphenyl)ethyl]carbamoyl]-2-methyl-propyl]amino]-4-oxo-butanoic acid

> <PUBCHEM_IUPAC_CAS_NAME>
(3S)-3-[[(2S)-6-amino-2-[[(2S)-2-amino-5-(diaminomethylideneamino)-1-oxopentyl]amino]-1-oxohexyl]amino]-4-[[(2S)-1-[[(1S)-1-carboxy-2-(4-hydroxyphenyl)ethyl]amino]-3-methyl-1-oxobutan-2-yl]amino]-4-oxobutanoic acid

> <PUBCHEM_IUPAC_NAME_MARKUP>
(3<I>S</I>)-3-[[(2<I>S</I>)-6-amino-2-[[(2<I>S</I>)-2-amino-5-(diaminomethylideneamino)pentanoyl]amino]hexanoyl]amino]-4-[[(2<I>S</I>)-1-[[(1<I>S</I>)-1-carboxy-2-(4-hydroxyphenyl)ethyl]amino]-3-methyl-1-oxobutan-2-yl]amino]-4-oxobutanoic acid

> <PUBCHEM_IUPAC_NAME>
(3S)-3-[[(2S)-6-amino-2-[[(2S)-2-amino-5-(diaminomethylideneamino)pentanoyl]amino]hexanoyl]amino]-4-[[(2S)-1-[[(1S)-1-carboxy-2-(4-hydroxyphenyl)ethyl]amino]-3-methyl-1-oxobutan-2-yl]amino]-4-oxobutanoic acid

> <PUBCHEM_IUPAC_SYSTEMATIC_NAME>
(3S)-3-[[(2S)-6-azanyl-2-[[(2S)-2-azanyl-5-[bis(azanyl)methylideneamino]pentanoyl]amino]hexanoyl]amino]-4-[[(2S)-1-[[(2S)-3-(4-hydroxyphenyl)-1-oxidanyl-1-oxidanylidene-propan-2-yl]amino]-3-methyl-1-oxidanylidene-butan-2-yl]amino]-4-oxidanylidene-butanoic acid

> <PUBCHEM_IUPAC_TRADITIONAL_NAME>
(3S)-3-[[(2S)-6-amino-2-[[(2S)-2-amino-5-guanidino-pentanoyl]amino]hexanoyl]amino]-4-[[(1S)-1-[[(1S)-1-carboxy-2-(4-hydroxyphenyl)ethyl]carbamoyl]-2-methyl-propyl]amino]-4-keto-butyric acid

> <PUBCHEM_IUPAC_INCHI>
InChI=1S/C30H49N9O9/c1-16(2)24(28(46)38-22(29(47)48)14-17-8-10-18(40)11-9-17)39-27(45)21(15-23(41)42)37-26(44)20(7-3-4-12-31)36-25(43)19(32)6-5-13-35-30(33)34/h8-11,16,19-22,24,40H,3-7,12-15,31-32H2,1-2H3,(H,36,43)(H,37,44)(H,38,46)(H,39,45)(H,41,42)(H,47,48)(H4,33,34,35)/t19-,20-,21-,22-,24-/m0/s1

> <PUBCHEM_IUPAC_INCHIKEY>
PSWFFKRAVBDQEG-YGQNSOCVSA-N

> <PUBCHEM_XLOGP3_AA>
-6.4

> <PUBCHEM_EXACT_MASS>
679.36532417

> <PUBCHEM_MOLECULAR_FORMULA>
C30H49N9O9

> <PUBCHEM_MOLECULAR_WEIGHT>
679.8

> <PUBCHEM_SMILES>
CC(C)[C@@H](C(=O)N[C@@H](CC1=CC=C(C=C1)O)C(=O)O)NC(=O)[C@H](CC(=O)O)NC(=O)[C@H](CCCCN)NC(=O)[C@H](CCCN=C(N)N)N

> <PUBCHEM_CONNECTIVITY_SMILES>
CC(C)C(C(=O)NC(CC1=CC=C(C=C1)O)C(=O)O)NC(=O)C(CC(=O)O)NC(=O)C(CCCCN)NC(=O)C(CCCN=C(N)N)N

> <PUBCHEM_CACTVS_TPSA>
328

> <PUBCHEM_MONOISOTOPIC_WEIGHT>
679.36532417

> <PUBCHEM_TOTAL_CHARGE>
0

> <PUBCHEM_HEAVY_ATOM_COUNT>
48

> <PUBCHEM_ATOM_DEF_STEREO_COUNT>
5

> <PUBCHEM_ATOM_UDEF_STEREO_COUNT>
0

> <PUBCHEM_BOND_DEF_STEREO_COUNT>
0

> <PUBCHEM_BOND_UDEF_STEREO_COUNT>
0

> <PUBCHEM_ISOTOPIC_ATOM_COUNT>
0

> <PUBCHEM_COMPONENT_COUNT>
1

> <PUBCHEM_CACTVS_TAUTO_COUNT>
-1

> <PUBCHEM_COORDINATE_TYPE>
1
5
255

> <PUBCHEM_BONDANNOTATIONS>
19  10  6
23  11  5
20  12  5
34  13  6
32  14  6
40  43  8
40  44  8
43  45  8
44  46  8
45  47  8
46  47  8

$$$$
