54755438
  -OEChem-10172515082D

 56 60  0     1  0  0  0  0  0999 V2000
    6.2619    0.3317    0.0000 O   0  0  0  0  0  0  0  0  0  0  0  0
    7.6651   -2.9090    0.0000 O   0  0  0  0  0  0  0  0  0  0  0  0
    5.9209    4.9385    0.0000 O   0  0  0  0  0  0  0  0  0  0  0  0
    4.6783   -0.4731    0.0000 N   0  0  0  0  0  0  0  0  0  0  0  0
    5.9423   -2.7310    0.0000 N   0  0  0  0  0  0  0  0  0  0  0  0
    4.6783    1.1364    0.0000 N   0  0  0  0  0  0  0  0  0  0  0  0
    2.8660   -0.6683    0.0000 N   0  0  0  0  0  0  0  0  0  0  0  0
    2.0000    0.8317    0.0000 N   0  0  0  0  0  0  0  0  0  0  0  0
    2.8660    2.3317    0.0000 N   0  0  0  0  0  0  0  0  0  0  0  0
    4.9889   -1.4236    0.0000 C   0  0  2  0  0  0  0  0  0  0  0  0
    4.4026   -2.2336    0.0000 C   0  0  0  0  0  0  0  0  0  0  0  0
    5.9405   -1.7310    0.0000 C   0  0  0  0  0  0  0  0  0  0  0  0
    4.9917   -3.0416    0.0000 C   0  0  0  0  0  0  0  0  0  0  0  0
    3.7321   -0.1683    0.0000 C   0  0  0  0  0  0  0  0  0  0  0  0
    5.2619    0.3317    0.0000 C   0  0  0  0  0  0  0  0  0  0  0  0
    3.7321    0.8317    0.0000 C   0  0  0  0  0  0  0  0  0  0  0  0
    6.7523   -3.3173    0.0000 C   0  0  0  0  0  0  0  0  0  0  0  0
    4.9889    2.0869    0.0000 C   0  0  0  0  0  0  0  0  0  0  0  0
    2.8660    1.3317    0.0000 C   0  0  0  0  0  0  0  0  0  0  0  0
    2.0000   -0.1683    0.0000 C   0  0  0  0  0  0  0  0  0  0  0  0
    4.3211    2.8312    0.0000 C   0  0  0  0  0  0  0  0  0  0  0  0
    5.9674    2.2931    0.0000 C   0  0  0  0  0  0  0  0  0  0  0  0
    6.6495   -4.3120    0.0000 C   0  0  0  0  0  0  0  0  0  0  0  0
    4.6318    3.7817    0.0000 C   0  0  0  0  0  0  0  0  0  0  0  0
    6.2781    3.2437    0.0000 C   0  0  0  0  0  0  0  0  0  0  0  0
    5.6103    3.9880    0.0000 C   0  0  0  0  0  0  0  0  0  0  0  0
    6.5467   -5.3067    0.0000 C   0  0  0  0  0  0  0  0  0  0  0  0
    6.4439   -6.3014    0.0000 C   0  0  0  0  0  0  0  0  0  0  0  0
    6.8994    5.1447    0.0000 C   0  0  0  0  0  0  0  0  0  0  0  0
    7.2101    6.0952    0.0000 C   0  0  0  0  0  0  0  0  0  0  0  0
    7.5673    4.4004    0.0000 C   0  0  0  0  0  0  0  0  0  0  0  0
    8.1886    6.3014    0.0000 C   0  0  0  0  0  0  0  0  0  0  0  0
    8.5458    4.6066    0.0000 C   0  0  0  0  0  0  0  0  0  0  0  0
    8.8564    5.5571    0.0000 C   0  0  0  0  0  0  0  0  0  0  0  0
    5.4266   -0.9844    0.0000 H   0  0  0  0  0  0  0  0  0  0  0  0
    3.9411   -1.8196    0.0000 H   0  0  0  0  0  0  0  0  0  0  0  0
    3.9425   -2.6493    0.0000 H   0  0  0  0  0  0  0  0  0  0  0  0
    6.5572   -1.7947    0.0000 H   0  0  0  0  0  0  0  0  0  0  0  0
    6.0684   -1.1243    0.0000 H   0  0  0  0  0  0  0  0  0  0  0  0
    4.4553   -3.3525    0.0000 H   0  0  0  0  0  0  0  0  0  0  0  0
    5.2449   -3.6076    0.0000 H   0  0  0  0  0  0  0  0  0  0  0  0
    1.4631   -0.4783    0.0000 H   0  0  0  0  0  0  0  0  0  0  0  0
    3.7144    2.7034    0.0000 H   0  0  0  0  0  0  0  0  0  0  0  0
    6.3815    1.8317    0.0000 H   0  0  0  0  0  0  0  0  0  0  0  0
    2.3291    2.6417    0.0000 H   0  0  0  0  0  0  0  0  0  0  0  0
    3.4030    2.6417    0.0000 H   0  0  0  0  0  0  0  0  0  0  0  0
    4.2177    4.2432    0.0000 H   0  0  0  0  0  0  0  0  0  0  0  0
    6.8848    3.3715    0.0000 H   0  0  0  0  0  0  0  0  0  0  0  0
    5.8272   -6.2377    0.0000 H   0  0  0  0  0  0  0  0  0  0  0  0
    6.3801   -6.9182    0.0000 H   0  0  0  0  0  0  0  0  0  0  0  0
    7.0606   -6.3652    0.0000 H   0  0  0  0  0  0  0  0  0  0  0  0
    6.7960    6.5567    0.0000 H   0  0  0  0  0  0  0  0  0  0  0  0
    7.3747    3.8111    0.0000 H   0  0  0  0  0  0  0  0  0  0  0  0
    8.3812    6.8908    0.0000 H   0  0  0  0  0  0  0  0  0  0  0  0
    8.9598    4.1452    0.0000 H   0  0  0  0  0  0  0  0  0  0  0  0
    9.4631    5.6850    0.0000 H   0  0  0  0  0  0  0  0  0  0  0  0
  1 15  2  0  0  0  0
  2 17  2  0  0  0  0
  3 26  1  0  0  0  0
  3 29  1  0  0  0  0
 10  4  1  1  0  0  0
  4 14  1  0  0  0  0
  4 15  1  0  0  0  0
  5 12  1  0  0  0  0
  5 13  1  0  0  0  0
  5 17  1  0  0  0  0
  6 15  1  0  0  0  0
  6 16  1  0  0  0  0
  6 18  1  0  0  0  0
  7 14  2  0  0  0  0
  7 20  1  0  0  0  0
  8 19  1  0  0  0  0
  8 20  2  0  0  0  0
  9 19  1  0  0  0  0
  9 45  1  0  0  0  0
  9 46  1  0  0  0  0
 10 11  1  0  0  0  0
 10 12  1  0  0  0  0
 10 35  1  0  0  0  0
 11 13  1  0  0  0  0
 11 36  1  0  0  0  0
 11 37  1  0  0  0  0
 12 38  1  0  0  0  0
 12 39  1  0  0  0  0
 13 40  1  0  0  0  0
 13 41  1  0  0  0  0
 14 16  1  0  0  0  0
 16 19  2  0  0  0  0
 17 23  1  0  0  0  0
 18 21  2  0  0  0  0
 18 22  1  0  0  0  0
 20 42  1  0  0  0  0
 21 24  1  0  0  0  0
 21 43  1  0  0  0  0
 22 25  2  0  0  0  0
 22 44  1  0  0  0  0
 23 27  3  0  0  0  0
 24 26  2  0  0  0  0
 24 47  1  0  0  0  0
 25 26  1  0  0  0  0
 25 48  1  0  0  0  0
 27 28  1  0  0  0  0
 28 49  1  0  0  0  0
 28 50  1  0  0  0  0
 28 51  1  0  0  0  0
 29 30  2  0  0  0  0
 29 31  1  0  0  0  0
 30 32  1  0  0  0  0
 30 52  1  0  0  0  0
 31 33  2  0  0  0  0
 31 53  1  0  0  0  0
 32 34  2  0  0  0  0
 32 54  1  0  0  0  0
 33 34  1  0  0  0  0
 33 55  1  0  0  0  0
 34 56  1  0  0  0  0
M  END
> <PUBCHEM_COMPOUND_CID>
54755438

> <PUBCHEM_COMPOUND_CANONICALIZED>
1

> <PUBCHEM_CACTVS_COMPLEXITY>
825

> <PUBCHEM_CACTVS_HBOND_ACCEPTOR>
6

> <PUBCHEM_CACTVS_HBOND_DONOR>
1

> <PUBCHEM_CACTVS_ROTATABLE_BOND>
4

> <PUBCHEM_CACTVS_SUBSKEYS>
AAADceB7sAAAAAAAAAAAAAAAAAAAAWLAAAA8YIAAAAAAAFgB0AAAHgAQAAAACCzBkgQ39pdIFADoECdzdACCiCkxMqAJ2CAufJiMbmLE+duWPCjsxxPI6CewQAAAAEAAAAAAAAAAgAAAAAAAAAAAAAAAAA==

> <PUBCHEM_IUPAC_OPENEYE_NAME>
6-amino-9-[(3R)-1-but-2-ynoylpyrrolidin-3-yl]-7-(4-phenoxyphenyl)purin-8-one

> <PUBCHEM_IUPAC_CAS_NAME>
6-amino-9-[(3R)-1-(1-oxobut-2-ynyl)-3-pyrrolidinyl]-7-(4-phenoxyphenyl)-8-purinone

> <PUBCHEM_IUPAC_NAME_MARKUP>
6-amino-9-[(3<I>R</I>)-1-but-2-ynoylpyrrolidin-3-yl]-7-(4-phenoxyphenyl)purin-8-one

> <PUBCHEM_IUPAC_NAME>
6-amino-9-[(3R)-1-but-2-ynoylpyrrolidin-3-yl]-7-(4-phenoxyphenyl)purin-8-one

> <PUBCHEM_IUPAC_SYSTEMATIC_NAME>
6-azanyl-9-[(3R)-1-but-2-ynoylpyrrolidin-3-yl]-7-(4-phenoxyphenyl)purin-8-one

> <PUBCHEM_IUPAC_TRADITIONAL_NAME>
6-amino-9-[(3R)-1-but-2-ynoylpyrrolidin-3-yl]-7-(4-phenoxyphenyl)purin-8-one

> <PUBCHEM_IUPAC_INCHI>
InChI=1S/C25H22N6O3/c1-2-6-21(32)29-14-13-18(15-29)31-24-22(23(26)27-16-28-24)30(25(31)33)17-9-11-20(12-10-17)34-19-7-4-3-5-8-19/h3-5,7-12,16,18H,13-15H2,1H3,(H2,26,27,28)/t18-/m1/s1

> <PUBCHEM_IUPAC_INCHIKEY>
SEJLPXCPMNSRAM-GOSISDBHSA-N

> <PUBCHEM_XLOGP3_AA>
3

> <PUBCHEM_EXACT_MASS>
454.17533859

> <PUBCHEM_MOLECULAR_FORMULA>
C25H22N6O3

> <PUBCHEM_MOLECULAR_WEIGHT>
454.5

> <PUBCHEM_SMILES>
CC#CC(=O)N1CC[C@H](C1)N2C3=NC=NC(=C3N(C2=O)C4=CC=C(C=C4)OC5=CC=CC=C5)N

> <PUBCHEM_CONNECTIVITY_SMILES>
CC#CC(=O)N1CCC(C1)N2C3=NC=NC(=C3N(C2=O)C4=CC=C(C=C4)OC5=CC=CC=C5)N

> <PUBCHEM_CACTVS_TPSA>
105

> <PUBCHEM_MONOISOTOPIC_WEIGHT>
454.17533859

> <PUBCHEM_TOTAL_CHARGE>
0

> <PUBCHEM_HEAVY_ATOM_COUNT>
34

> <PUBCHEM_ATOM_DEF_STEREO_COUNT>
1

> <PUBCHEM_ATOM_UDEF_STEREO_COUNT>
0

> <PUBCHEM_BOND_DEF_STEREO_COUNT>
0

> <PUBCHEM_BOND_UDEF_STEREO_COUNT>
0

> <PUBCHEM_ISOTOPIC_ATOM_COUNT>
0

> <PUBCHEM_COMPONENT_COUNT>
1

> <PUBCHEM_CACTVS_TAUTO_COUNT>
-1

> <PUBCHEM_COORDINATE_TYPE>
1
5
255

> <PUBCHEM_BONDANNOTATIONS>
14  16  8
16  19  8
18  21  8
18  22  8
21  24  8
22  25  8
24  26  8
25  26  8
29  30  8
29  31  8
30  32  8
31  33  8
32  34  8
33  34  8
10  4  5
4  14  8
4  15  8
6  15  8
6  16  8
7  14  8
7  20  8
8  19  8
8  20  8

$$$$
