249332
  -OEChem-10172515102D

123130  0     1  0  0  0  0  0999 V2000
   12.7054    6.5473    0.0000 S   0  0  0  0  0  0  0  0  0  0  0  0
    5.3840    2.1550    0.0000 O   0  0  0  0  0  0  0  0  0  0  0  0
    6.6514    4.1097    0.0000 O   0  0  0  0  0  0  0  0  0  0  0  0
    7.3946    3.4405    0.0000 O   0  0  0  0  0  0  0  0  0  0  0  0
    7.1867    2.4624    0.0000 O   0  0  0  0  0  0  0  0  0  0  0  0
    7.7312    5.0241    0.0000 O   0  0  0  0  0  0  0  0  0  0  0  0
    6.7539    8.5999    0.0000 O   0  0  0  0  0  0  0  0  0  0  0  0
    6.6711    0.9960    0.0000 O   0  0  0  0  0  0  0  0  0  0  0  0
    5.1025    7.2870    0.0000 O   0  0  0  0  0  0  0  0  0  0  0  0
    3.8176    7.3319    0.0000 O   0  0  0  0  0  0  0  0  0  0  0  0
    7.7667   12.5471    0.0000 O   0  0  0  0  0  0  0  0  0  0  0  0
   13.5714    7.0473    0.0000 O   0  0  0  0  0  0  0  0  0  0  0  0
   11.8394    6.0473    0.0000 O   0  0  0  0  0  0  0  0  0  0  0  0
   12.2054    7.4133    0.0000 O   0  0  0  0  0  0  0  0  0  0  0  0
   13.2054    5.6813    0.0000 O   0  0  0  0  0  0  0  0  0  0  0  0
    2.9575    4.3837    0.0000 N   0  0  3  0  0  0  0  0  0  0  0  0
    6.0370    5.3842    0.0000 N   0  0  0  0  0  0  0  0  0  0  0  0
    3.2419    8.6635    0.0000 N   0  0  0  0  0  0  0  0  0  0  0  0
    5.4601   11.8187    0.0000 N   0  0  3  0  0  0  0  0  0  0  0  0
    4.4973    4.8839    0.0000 C   0  0  1  0  0  0  0  0  0  0  0  0
    3.8718    4.1893    0.0000 C   0  0  2  0  0  0  0  0  0  0  0  0
    4.1607    3.3004    0.0000 C   0  0  1  0  0  0  0  0  0  0  0  0
    5.4116    4.6896    0.0000 C   0  0  2  0  0  0  0  0  0  0  0  0
    5.7004    3.8006    0.0000 C   0  0  1  0  0  0  0  0  0  0  0  0
    4.1122    5.9196    0.0000 C   0  0  0  0  0  0  0  0  0  0  0  0
    5.0749    3.1060    0.0000 C   0  0  2  0  0  0  0  0  0  0  0  0
    4.8339    6.4675    0.0000 C   0  0  0  0  0  0  0  0  0  0  0  0
    2.6687    5.2726    0.0000 C   0  0  0  0  0  0  0  0  0  0  0  0
    4.4697    2.3493    0.0000 C   0  0  0  0  0  0  0  0  0  0  0  0
    3.5352    2.6057    0.0000 C   0  0  0  0  0  0  0  0  0  0  0  0
    5.7482    6.2732    0.0000 C   0  0  0  0  0  0  0  0  0  0  0  0
    2.3321    3.6890    0.0000 C   0  0  0  0  0  0  0  0  0  0  0  0
    2.6209    2.8001    0.0000 C   0  0  0  0  0  0  0  0  0  0  0  0
    6.4435    3.1315    0.0000 C   0  0  0  0  0  0  0  0  0  0  0  0
    4.5450    7.3565    0.0000 C   0  0  0  0  0  0  0  0  0  0  0  0
    3.8005    1.6062    0.0000 C   0  0  0  0  0  0  0  0  0  0  0  0
    6.3736    6.9678    0.0000 C   0  0  0  0  0  0  0  0  0  0  0  0
    6.9880    5.6933    0.0000 C   0  0  0  0  0  0  0  0  0  0  0  0
    5.1705    8.0511    0.0000 C   0  0  0  0  0  0  0  0  0  0  0  0
    6.0848    7.8568    0.0000 C   0  0  0  0  0  0  0  0  0  0  0  0
    4.8614    9.0022    0.0000 C   0  0  1  0  0  0  0  0  0  0  0  0
    5.6930    1.2039    0.0000 C   0  0  0  0  0  0  0  0  0  0  0  0
    5.8125    9.3112    0.0000 C   0  0  0  0  0  0  0  0  0  0  0  0
    3.9343    9.3768    0.0000 C   0  0  0  0  0  0  0  0  0  0  0  0
    6.3424   10.1593    0.0000 C   0  0  1  0  0  0  0  0  0  0  0  0
    4.4868    8.0750    0.0000 C   0  0  0  0  0  0  0  0  0  0  0  0
    5.0239    0.4608    0.0000 C   0  0  0  0  0  0  0  0  0  0  0  0
    8.1377    2.7714    0.0000 C   0  0  0  0  0  0  0  0  0  0  0  0
    7.2177   10.6805    0.0000 C   0  0  0  0  0  0  0  0  0  0  0  0
    6.2033   11.1495    0.0000 C   0  0  0  0  0  0  0  0  0  0  0  0
    3.4648   10.2597    0.0000 C   0  0  0  0  0  0  0  0  0  0  0  0
    7.2368   11.6991    0.0000 C   0  0  1  0  0  0  0  0  0  0  0  0
    6.3817   12.2528    0.0000 C   0  0  0  0  0  0  0  0  0  0  0  0
    3.6727   11.2379    0.0000 C   0  0  0  0  0  0  0  0  0  0  0  0
    4.4607   11.8536    0.0000 C   0  0  0  0  0  0  0  0  0  0  0  0
    7.7320    8.3920    0.0000 C   0  0  0  0  0  0  0  0  0  0  0  0
    2.4863   10.0846    0.0000 C   0  0  0  0  0  0  0  0  0  0  0  0
    2.3488    9.1001    0.0000 C   0  0  0  0  0  0  0  0  0  0  0  0
    8.2362   11.6642    0.0000 C   0  0  0  0  0  0  0  0  0  0  0  0
    1.6797   10.7339    0.0000 C   0  0  0  0  0  0  0  0  0  0  0  0
    1.3951    8.6966    0.0000 C   0  0  0  0  0  0  0  0  0  0  0  0
    6.2413    7.4470    0.0000 C   0  0  0  0  0  0  0  0  0  0  0  0
    8.7661   12.5122    0.0000 C   0  0  0  0  0  0  0  0  0  0  0  0
    0.7170   10.3526    0.0000 C   0  0  0  0  0  0  0  0  0  0  0  0
    0.5738    9.3271    0.0000 C   0  0  0  0  0  0  0  0  0  0  0  0
    3.6091    4.9977    0.0000 H   0  0  0  0  0  0  0  0  0  0  0  0
    6.2430    4.5129    0.0000 H   0  0  0  0  0  0  0  0  0  0  0  0
    4.6884    6.1483    0.0000 H   0  0  0  0  0  0  0  0  0  0  0  0
    3.8710    6.4907    0.0000 H   0  0  0  0  0  0  0  0  0  0  0  0
    5.6814    2.9771    0.0000 H   0  0  0  0  0  0  0  0  0  0  0  0
    2.4355    5.8471    0.0000 H   0  0  0  0  0  0  0  0  0  0  0  0
    2.0862    5.0601    0.0000 H   0  0  0  0  0  0  0  0  0  0  0  0
    4.8514    1.8607    0.0000 H   0  0  0  0  0  0  0  0  0  0  0  0
    5.0171    2.6404    0.0000 H   0  0  0  0  0  0  0  0  0  0  0  0
    3.7268    2.0161    0.0000 H   0  0  0  0  0  0  0  0  0  0  0  0
    1.9504    4.1776    0.0000 H   0  0  0  0  0  0  0  0  0  0  0  0
    1.7846    3.3980    0.0000 H   0  0  0  0  0  0  0  0  0  0  0  0
    2.2061    2.3393    0.0000 H   0  0  0  0  0  0  0  0  0  0  0  0
    3.9386    7.4854    0.0000 H   0  0  0  0  0  0  0  0  0  0  0  0
    7.0663    4.5704    0.0000 H   0  0  0  0  0  0  0  0  0  0  0  0
    3.3398    2.0210    0.0000 H   0  0  0  0  0  0  0  0  0  0  0  0
    3.3857    1.1454    0.0000 H   0  0  0  0  0  0  0  0  0  0  0  0
    4.2613    1.1913    0.0000 H   0  0  0  0  0  0  0  0  0  0  0  0
    6.9800    6.8389    0.0000 H   0  0  0  0  0  0  0  0  0  0  0  0
    7.1169    6.2997    0.0000 H   0  0  0  0  0  0  0  0  0  0  0  0
    5.8269    8.6914    0.0000 H   0  0  0  0  0  0  0  0  0  0  0  0
    6.4104    9.1473    0.0000 H   0  0  0  0  0  0  0  0  0  0  0  0
    7.1739    9.9825    0.0000 H   0  0  0  0  0  0  0  0  0  0  0  0
    4.5631    0.8756    0.0000 H   0  0  0  0  0  0  0  0  0  0  0  0
    4.6090    0.0000    0.0000 H   0  0  0  0  0  0  0  0  0  0  0  0
    5.4846    0.0459    0.0000 H   0  0  0  0  0  0  0  0  0  0  0  0
    7.7229    2.3107    0.0000 H   0  0  0  0  0  0  0  0  0  0  0  0
    8.5985    2.3565    0.0000 H   0  0  0  0  0  0  0  0  0  0  0  0
    8.5526    3.2322    0.0000 H   0  0  0  0  0  0  0  0  0  0  0  0
    7.4314   10.0985    0.0000 H   0  0  0  0  0  0  0  0  0  0  0  0
    7.8291   10.7833    0.0000 H   0  0  0  0  0  0  0  0  0  0  0  0
    6.8162   11.0561    0.0000 H   0  0  0  0  0  0  0  0  0  0  0  0
    6.4685   11.7099    0.0000 H   0  0  0  0  0  0  0  0  0  0  0  0
    2.9309    8.1271    0.0000 H   0  0  0  0  0  0  0  0  0  0  0  0
    6.8088   12.7022    0.0000 H   0  0  0  0  0  0  0  0  0  0  0  0
    6.0187   12.7554    0.0000 H   0  0  0  0  0  0  0  0  0  0  0  0
    3.4472   11.8154    0.0000 H   0  0  0  0  0  0  0  0  0  0  0  0
    3.0548   11.1875    0.0000 H   0  0  0  0  0  0  0  0  0  0  0  0
    4.6592   12.4409    0.0000 H   0  0  0  0  0  0  0  0  0  0  0  0
    3.9549   12.2121    0.0000 H   0  0  0  0  0  0  0  0  0  0  0  0
    7.6031    7.7856    0.0000 H   0  0  0  0  0  0  0  0  0  0  0  0
    8.3385    8.2631    0.0000 H   0  0  0  0  0  0  0  0  0  0  0  0
    7.8609    8.9985    0.0000 H   0  0  0  0  0  0  0  0  0  0  0  0
    8.1073   11.0577    0.0000 H   0  0  0  0  0  0  0  0  0  0  0  0
    8.8111   11.4319    0.0000 H   0  0  0  0  0  0  0  0  0  0  0  0
    7.4757   13.0946    0.0000 H   0  0  0  0  0  0  0  0  0  0  0  0
    1.7725   11.3469    0.0000 H   0  0  0  0  0  0  0  0  0  0  0  0
    1.3165    8.0816    0.0000 H   0  0  0  0  0  0  0  0  0  0  0  0
    6.3276    6.8331    0.0000 H   0  0  0  0  0  0  0  0  0  0  0  0
    6.8553    7.5333    0.0000 H   0  0  0  0  0  0  0  0  0  0  0  0
    6.1550    8.0610    0.0000 H   0  0  0  0  0  0  0  0  0  0  0  0
    9.2919   12.1837    0.0000 H   0  0  0  0  0  0  0  0  0  0  0  0
    9.0947   13.0380    0.0000 H   0  0  0  0  0  0  0  0  0  0  0  0
    8.2403   12.8408    0.0000 H   0  0  0  0  0  0  0  0  0  0  0  0
    0.2296   10.7357    0.0000 H   0  0  0  0  0  0  0  0  0  0  0  0
    0.0000    9.0921    0.0000 H   0  0  0  0  0  0  0  0  0  0  0  0
   14.1084    6.7373    0.0000 H   0  0  0  0  0  0  0  0  0  0  0  0
   11.3024    6.3573    0.0000 H   0  0  0  0  0  0  0  0  0  0  0  0
  1 12  1  0  0  0  0
  1 13  1  0  0  0  0
  1 14  2  0  0  0  0
  1 15  2  0  0  0  0
 26  2  1  6  0  0  0
  2 42  1  0  0  0  0
 24  3  1  6  0  0  0
  3 80  1  0  0  0  0
  4 34  1  0  0  0  0
  4 48  1  0  0  0  0
  5 34  2  0  0  0  0
  6 38  2  0  0  0  0
  7 40  1  0  0  0  0
  7 56  1  0  0  0  0
  8 42  2  0  0  0  0
  9 46  1  0  0  0  0
  9 62  1  0  0  0  0
 10 46  2  0  0  0  0
 52 11  1  1  0  0  0
 11111  1  0  0  0  0
 12122  1  0  0  0  0
 13123  1  0  0  0  0
 16 21  1  0  0  0  0
 16 28  1  0  0  0  0
 16 32  1  0  0  0  0
 17 23  1  0  0  0  0
 17 31  1  0  0  0  0
 17 38  1  0  0  0  0
 18 44  1  0  0  0  0
 18 58  1  0  0  0  0
 18 99  1  0  0  0  0
 19 50  1  0  0  0  0
 19 53  1  0  0  0  0
 19 55  1  0  0  0  0
 20 21  1  0  0  0  0
 20 23  1  0  0  0  0
 20 25  1  6  0  0  0
 20 27  1  0  0  0  0
 21 22  1  0  0  0  0
 21 66  1  1  0  0  0
 22 26  1  0  0  0  0
 22 29  1  1  0  0  0
 22 30  1  0  0  0  0
 23 24  1  0  0  0  0
 23 67  1  6  0  0  0
 24 26  1  0  0  0  0
 24 34  1  0  0  0  0
 25 28  1  0  0  0  0
 25 68  1  0  0  0  0
 25 69  1  0  0  0  0
 26 70  1  0  0  0  0
 27 31  1  0  0  0  0
 27 35  2  0  0  0  0
 28 71  1  0  0  0  0
 28 72  1  0  0  0  0
 29 36  1  0  0  0  0
 29 73  1  0  0  0  0
 29 74  1  0  0  0  0
 30 33  2  0  0  0  0
 30 75  1  0  0  0  0
 31 37  2  0  0  0  0
 32 33  1  0  0  0  0
 32 76  1  0  0  0  0
 32 77  1  0  0  0  0
 33 78  1  0  0  0  0
 35 39  1  0  0  0  0
 35 79  1  0  0  0  0
 36 81  1  0  0  0  0
 36 82  1  0  0  0  0
 36 83  1  0  0  0  0
 37 40  1  0  0  0  0
 37 84  1  0  0  0  0
 38 85  1  0  0  0  0
 39 40  2  0  0  0  0
 39 41  1  0  0  0  0
 41 43  1  0  0  0  0
 41 44  1  0  0  0  0
 41 46  1  1  0  0  0
 42 47  1  0  0  0  0
 43 45  1  0  0  0  0
 43 86  1  0  0  0  0
 43 87  1  0  0  0  0
 44 51  2  0  0  0  0
 45 49  1  0  0  0  0
 45 50  1  0  0  0  0
 45 88  1  1  0  0  0
 47 89  1  0  0  0  0
 47 90  1  0  0  0  0
 47 91  1  0  0  0  0
 48 92  1  0  0  0  0
 48 93  1  0  0  0  0
 48 94  1  0  0  0  0
 49 52  1  0  0  0  0
 49 95  1  0  0  0  0
 49 96  1  0  0  0  0
 50 97  1  0  0  0  0
 50 98  1  0  0  0  0
 51 54  1  0  0  0  0
 51 57  1  0  0  0  0
 52 53  1  0  0  0  0
 52 59  1  0  0  0  0
 53100  1  0  0  0  0
 53101  1  0  0  0  0
 54 55  1  0  0  0  0
 54102  1  0  0  0  0
 54103  1  0  0  0  0
 55104  1  0  0  0  0
 55105  1  0  0  0  0
 56106  1  0  0  0  0
 56107  1  0  0  0  0
 56108  1  0  0  0  0
 57 58  1  0  0  0  0
 57 60  2  0  0  0  0
 58 61  2  0  0  0  0
 59 63  1  0  0  0  0
 59109  1  0  0  0  0
 59110  1  0  0  0  0
 60 64  1  0  0  0  0
 60112  1  0  0  0  0
 61 65  1  0  0  0  0
 61113  1  0  0  0  0
 62114  1  0  0  0  0
 62115  1  0  0  0  0
 62116  1  0  0  0  0
 63117  1  0  0  0  0
 63118  1  0  0  0  0
 63119  1  0  0  0  0
 64 65  2  0  0  0  0
 64120  1  0  0  0  0
 65121  1  0  0  0  0
M  END
> <PUBCHEM_COMPOUND_CID>
249332

> <PUBCHEM_COMPOUND_CANONICALIZED>
1

> <PUBCHEM_CACTVS_COMPLEXITY>
1830

> <PUBCHEM_CACTVS_HBOND_ACCEPTOR>
16

> <PUBCHEM_CACTVS_HBOND_DONOR>
5

> <PUBCHEM_CACTVS_ROTATABLE_BOND>
10

> <PUBCHEM_CACTVS_SUBSKEYS>
AAADcfB/vABAAAAAAAAAAAAAAAAAAWLFgAA8YMECAAAAAFiB9AAAHgAQCAAAD3zhngYyzvPJloCoAyTy3DKCiCAhIiAImSF+bJgPJv7E9ZuGcChn9hnb6Af62fOfqAACAgAKAABQgAYECBSgAAAAAAAAAA==

> <PUBCHEM_IUPAC_OPENEYE_NAME>
methyl (1R,9R,10S,11R,12R,19R)-11-acetoxy-12-ethyl-4-[(13S,15S,17S)-17-ethyl-17-hydroxy-13-methoxycarbonyl-1,11-diazatetracyclo[13.3.1.04,12.05,10]nonadeca-4(12),5,7,9-tetraen-13-yl]-8-formyl-10-hydroxy-5-methoxy-8,16-diazapentacyclo[10.6.1.01,9.02,7.016,19]nonadeca-2,4,6,13-tetraene-10-carboxylate;sulfuric acid

> <PUBCHEM_IUPAC_CAS_NAME>
(1R,9R,10S,11R,12R,19R)-11-acetyloxy-12-ethyl-4-[(13S,15S,17S)-17-ethyl-17-hydroxy-13-methoxycarbonyl-1,11-diazatetracyclo[13.3.1.04,12.05,10]nonadeca-4(12),5,7,9-tetraen-13-yl]-8-formyl-10-hydroxy-5-methoxy-8,16-diazapentacyclo[10.6.1.01,9.02,7.016,19]nonadeca-2,4,6,13-tetraene-10-carboxylic acid methyl ester;sulfuric acid

> <PUBCHEM_IUPAC_NAME_MARKUP>
methyl (1<I>R</I>,9<I>R</I>,10<I>S</I>,11<I>R</I>,12<I>R</I>,19<I>R</I>)-11-acetyloxy-12-ethyl-4-[(13<I>S</I>,15<I>S</I>,17<I>S</I>)-17-ethyl-17-hydroxy-13-methoxycarbonyl-1,11-diazatetracyclo[13.3.1.0<SUP>4,12</SUP>.0<SUP>5,10</SUP>]nonadeca-4(12),5,7,9-tetraen-13-yl]-8-formyl-10-hydroxy-5-methoxy-8,16-diazapentacyclo[10.6.1.0<SUP>1,9</SUP>.0<SUP>2,7</SUP>.0<SUP>16,19</SUP>]nonadeca-2,4,6,13-tetraene-10-carboxylate;sulfuric acid

> <PUBCHEM_IUPAC_NAME>
methyl (1R,9R,10S,11R,12R,19R)-11-acetyloxy-12-ethyl-4-[(13S,15S,17S)-17-ethyl-17-hydroxy-13-methoxycarbonyl-1,11-diazatetracyclo[13.3.1.04,12.05,10]nonadeca-4(12),5,7,9-tetraen-13-yl]-8-formyl-10-hydroxy-5-methoxy-8,16-diazapentacyclo[10.6.1.01,9.02,7.016,19]nonadeca-2,4,6,13-tetraene-10-carboxylate;sulfuric acid

> <PUBCHEM_IUPAC_SYSTEMATIC_NAME>
methyl (1R,9R,10S,11R,12R,19R)-11-acetyloxy-12-ethyl-4-[(13S,15S,17S)-17-ethyl-13-methoxycarbonyl-17-oxidanyl-1,11-diazatetracyclo[13.3.1.04,12.05,10]nonadeca-4(12),5,7,9-tetraen-13-yl]-8-methanoyl-5-methoxy-10-oxidanyl-8,16-diazapentacyclo[10.6.1.01,9.02,7.016,19]nonadeca-2,4,6,13-tetraene-10-carboxylate;sulfuric acid

> <PUBCHEM_IUPAC_TRADITIONAL_NAME>
(1R,9R,10S,11R,12R,19R)-11-acetoxy-4-[(13S,15S,17S)-13-carbomethoxy-17-ethyl-17-hydroxy-1,11-diazatetracyclo[13.3.1.04,12.05,10]nonadeca-4(12),5,7,9-tetraen-13-yl]-12-ethyl-8-formyl-10-hydroxy-5-methoxy-8,16-diazapentacyclo[10.6.1.01,9.02,7.016,19]nonadeca-2,4,6,13-tetraene-10-carboxylic acid methyl ester;sulfuric acid

> <PUBCHEM_IUPAC_INCHI>
InChI=1S/C46H56N4O10.H2O4S/c1-7-42(55)22-28-23-45(40(53)58-5,36-30(14-18-48(24-28)25-42)29-12-9-10-13-33(29)47-36)32-20-31-34(21-35(32)57-4)50(26-51)38-44(31)16-19-49-17-11-15-43(8-2,37(44)49)39(60-27(3)52)46(38,56)41(54)59-6;1-5(2,3)4/h9-13,15,20-21,26,28,37-39,47,55-56H,7-8,14,16-19,22-25H2,1-6H3;(H2,1,2,3,4)/t28-,37+,38-,39-,42+,43-,44-,45+,46+;/m1./s1

> <PUBCHEM_IUPAC_INCHIKEY>
AQTQHPDCURKLKT-JKDPCDLQSA-N

> <PUBCHEM_EXACT_MASS>
922.36702371

> <PUBCHEM_MOLECULAR_FORMULA>
C46H58N4O14S

> <PUBCHEM_MOLECULAR_WEIGHT>
923.0

> <PUBCHEM_SMILES>
CC[C@@]1(C[C@@H]2C[C@@](C3=C(CCN(C2)C1)C4=CC=CC=C4N3)(C5=C(C=C6C(=C5)[C@]78CCN9[C@H]7[C@@](C=CC9)([C@H]([C@@]([C@@H]8N6C=O)(C(=O)OC)O)OC(=O)C)CC)OC)C(=O)OC)O.OS(=O)(=O)O

> <PUBCHEM_CONNECTIVITY_SMILES>
CCC1(CC2CC(C3=C(CCN(C2)C1)C4=CC=CC=C4N3)(C5=C(C=C6C(=C5)C78CCN9C7C(C=CC9)(C(C(C8N6C=O)(C(=O)OC)O)OC(=O)C)CC)OC)C(=O)OC)O.OS(=O)(=O)O

> <PUBCHEM_CACTVS_TPSA>
254

> <PUBCHEM_MONOISOTOPIC_WEIGHT>
922.36702371

> <PUBCHEM_TOTAL_CHARGE>
0

> <PUBCHEM_HEAVY_ATOM_COUNT>
65

> <PUBCHEM_ATOM_DEF_STEREO_COUNT>
9

> <PUBCHEM_ATOM_UDEF_STEREO_COUNT>
0

> <PUBCHEM_BOND_DEF_STEREO_COUNT>
0

> <PUBCHEM_BOND_UDEF_STEREO_COUNT>
0

> <PUBCHEM_ISOTOPIC_ATOM_COUNT>
0

> <PUBCHEM_COMPONENT_COUNT>
2

> <PUBCHEM_CACTVS_TAUTO_COUNT>
-1

> <PUBCHEM_COORDINATE_TYPE>
1
5
255

> <PUBCHEM_BONDANNOTATIONS>
52  11  5
18  44  8
18  58  8
26  2  6
20  25  6
21  66  5
22  29  5
23  67  6
27  31  8
27  35  8
24  3  6
31  37  8
35  39  8
37  40  8
39  40  8
41  46  5
44  51  8
45  88  5
51  57  8
57  58  8
57  60  8
58  61  8
60  64  8
61  65  8
64  65  8

$$$$
