24776445
  -OEChem-10172515132D

 41 43  0     0  0  0  0  0  0999 V2000
    2.0000   -1.0000    0.0000 Cl  0  0  0  0  0  0  0  0  0  0  0  0
    4.5981    4.5000    0.0000 Cl  0  0  0  0  0  0  0  0  0  0  0  0
    3.7321   -4.0000    0.0000 S   0  0  0  0  0  0  0  0  0  0  0  0
    4.7321   -4.0000    0.0000 O   0  0  0  0  0  0  0  0  0  0  0  0
    2.7321   -4.0000    0.0000 O   0  0  0  0  0  0  0  0  0  0  0  0
    2.8660    0.5000    0.0000 O   0  0  0  0  0  0  0  0  0  0  0  0
    4.5981    0.5000    0.0000 N   0  0  0  0  0  0  0  0  0  0  0  0
    7.1962    3.0000    0.0000 N   0  0  0  0  0  0  0  0  0  0  0  0
    3.7321   -3.0000    0.0000 C   0  0  0  0  0  0  0  0  0  0  0  0
    3.7321   -1.0000    0.0000 C   0  0  0  0  0  0  0  0  0  0  0  0
    2.8660   -2.5000    0.0000 C   0  0  0  0  0  0  0  0  0  0  0  0
    4.5981   -2.5000    0.0000 C   0  0  0  0  0  0  0  0  0  0  0  0
    4.5981    1.5000    0.0000 C   0  0  0  0  0  0  0  0  0  0  0  0
    2.8660   -1.5000    0.0000 C   0  0  0  0  0  0  0  0  0  0  0  0
    4.5981   -1.5000    0.0000 C   0  0  0  0  0  0  0  0  0  0  0  0
    5.4641    3.0000    0.0000 C   0  0  0  0  0  0  0  0  0  0  0  0
    3.7321    0.0000    0.0000 C   0  0  0  0  0  0  0  0  0  0  0  0
    5.4641    2.0000    0.0000 C   0  0  0  0  0  0  0  0  0  0  0  0
    3.7321   -5.0000    0.0000 C   0  0  0  0  0  0  0  0  0  0  0  0
    3.7321    2.0000    0.0000 C   0  0  0  0  0  0  0  0  0  0  0  0
    4.5981    3.5000    0.0000 C   0  0  0  0  0  0  0  0  0  0  0  0
    6.3301    3.5000    0.0000 C   0  0  0  0  0  0  0  0  0  0  0  0
    3.7321    3.0000    0.0000 C   0  0  0  0  0  0  0  0  0  0  0  0
    6.3301    4.5000    0.0000 C   0  0  0  0  0  0  0  0  0  0  0  0
    7.1962    5.0000    0.0000 C   0  0  0  0  0  0  0  0  0  0  0  0
    8.0622    3.5000    0.0000 C   0  0  0  0  0  0  0  0  0  0  0  0
    8.0622    4.5000    0.0000 C   0  0  0  0  0  0  0  0  0  0  0  0
    2.3291   -2.8100    0.0000 H   0  0  0  0  0  0  0  0  0  0  0  0
    5.1350   -2.8100    0.0000 H   0  0  0  0  0  0  0  0  0  0  0  0
    5.1350   -1.1900    0.0000 H   0  0  0  0  0  0  0  0  0  0  0  0
    6.0010    1.6900    0.0000 H   0  0  0  0  0  0  0  0  0  0  0  0
    5.1350    0.1900    0.0000 H   0  0  0  0  0  0  0  0  0  0  0  0
    3.1121   -5.0000    0.0000 H   0  0  0  0  0  0  0  0  0  0  0  0
    3.7321   -5.6200    0.0000 H   0  0  0  0  0  0  0  0  0  0  0  0
    4.3521   -5.0000    0.0000 H   0  0  0  0  0  0  0  0  0  0  0  0
    3.1951    1.6900    0.0000 H   0  0  0  0  0  0  0  0  0  0  0  0
    3.1951    3.3100    0.0000 H   0  0  0  0  0  0  0  0  0  0  0  0
    5.7932    4.8100    0.0000 H   0  0  0  0  0  0  0  0  0  0  0  0
    7.1962    5.6200    0.0000 H   0  0  0  0  0  0  0  0  0  0  0  0
    8.5991    3.1900    0.0000 H   0  0  0  0  0  0  0  0  0  0  0  0
    8.5991    4.8100    0.0000 H   0  0  0  0  0  0  0  0  0  0  0  0
  1 14  1  0  0  0  0
  2 21  1  0  0  0  0
  3  4  2  0  0  0  0
  3  5  2  0  0  0  0
  3  9  1  0  0  0  0
  3 19  1  0  0  0  0
  6 17  2  0  0  0  0
  7 13  1  0  0  0  0
  7 17  1  0  0  0  0
  7 32  1  0  0  0  0
  8 22  1  0  0  0  0
  8 26  2  0  0  0  0
  9 11  2  0  0  0  0
  9 12  1  0  0  0  0
 10 14  2  0  0  0  0
 10 15  1  0  0  0  0
 10 17  1  0  0  0  0
 11 14  1  0  0  0  0
 11 28  1  0  0  0  0
 12 15  2  0  0  0  0
 12 29  1  0  0  0  0
 13 18  2  0  0  0  0
 13 20  1  0  0  0  0
 15 30  1  0  0  0  0
 16 18  1  0  0  0  0
 16 21  2  0  0  0  0
 16 22  1  0  0  0  0
 18 31  1  0  0  0  0
 19 33  1  0  0  0  0
 19 34  1  0  0  0  0
 19 35  1  0  0  0  0
 20 23  2  0  0  0  0
 20 36  1  0  0  0  0
 21 23  1  0  0  0  0
 22 24  2  0  0  0  0
 23 37  1  0  0  0  0
 24 25  1  0  0  0  0
 24 38  1  0  0  0  0
 25 27  2  0  0  0  0
 25 39  1  0  0  0  0
 26 27  1  0  0  0  0
 26 40  1  0  0  0  0
 27 41  1  0  0  0  0
M  END
> <PUBCHEM_COMPOUND_CID>
24776445

> <PUBCHEM_COMPOUND_CANONICALIZED>
1

> <PUBCHEM_CACTVS_COMPLEXITY>
625

> <PUBCHEM_CACTVS_HBOND_ACCEPTOR>
4

> <PUBCHEM_CACTVS_HBOND_DONOR>
1

> <PUBCHEM_CACTVS_ROTATABLE_BOND>
4

> <PUBCHEM_CACTVS_SUBSKEYS>
AAADccB7MABGAAAAAAAAAAAAAAAAAAAAAAA8YIAAAAAAAAAB0AAAHgYQAAAADArB3iS+wZLIEAqoAzV3VHDCgCA1DzAI2Dk4ZtgIIPLhl5GEIQhglADIzYcYiMCOEABAQBABAAAgAICAIAIAAAAAAAAAAA==

> <PUBCHEM_IUPAC_OPENEYE_NAME>
2-chloro-N-[4-chloro-3-(2-pyridyl)phenyl]-4-methylsulfonyl-benzamide

> <PUBCHEM_IUPAC_CAS_NAME>
2-chloro-N-[4-chloro-3-(2-pyridinyl)phenyl]-4-methylsulfonylbenzamide

> <PUBCHEM_IUPAC_NAME_MARKUP>
2-chloro-<I>N</I>-(4-chloro-3-pyridin-2-ylphenyl)-4-methylsulfonylbenzamide

> <PUBCHEM_IUPAC_NAME>
2-chloro-N-(4-chloro-3-pyridin-2-ylphenyl)-4-methylsulfonylbenzamide

> <PUBCHEM_IUPAC_SYSTEMATIC_NAME>
2-chloranyl-N-(4-chloranyl-3-pyridin-2-yl-phenyl)-4-methylsulfonyl-benzamide

> <PUBCHEM_IUPAC_TRADITIONAL_NAME>
2-chloro-N-[4-chloro-3-(2-pyridyl)phenyl]-4-mesyl-benzamide

> <PUBCHEM_IUPAC_INCHI>
InChI=1S/C19H14Cl2N2O3S/c1-27(25,26)13-6-7-14(17(21)11-13)19(24)23-12-5-8-16(20)15(10-12)18-4-2-3-9-22-18/h2-11H,1H3,(H,23,24)

> <PUBCHEM_IUPAC_INCHIKEY>
BPQMGSKTAYIVFO-UHFFFAOYSA-N

> <PUBCHEM_XLOGP3_AA>
3.8

> <PUBCHEM_EXACT_MASS>
420.0102189

> <PUBCHEM_MOLECULAR_FORMULA>
C19H14Cl2N2O3S

> <PUBCHEM_MOLECULAR_WEIGHT>
421.3

> <PUBCHEM_SMILES>
CS(=O)(=O)C1=CC(=C(C=C1)C(=O)NC2=CC(=C(C=C2)Cl)C3=CC=CC=N3)Cl

> <PUBCHEM_CONNECTIVITY_SMILES>
CS(=O)(=O)C1=CC(=C(C=C1)C(=O)NC2=CC(=C(C=C2)Cl)C3=CC=CC=N3)Cl

> <PUBCHEM_CACTVS_TPSA>
84.5

> <PUBCHEM_MONOISOTOPIC_WEIGHT>
420.0102189

> <PUBCHEM_TOTAL_CHARGE>
0

> <PUBCHEM_HEAVY_ATOM_COUNT>
27

> <PUBCHEM_ATOM_DEF_STEREO_COUNT>
0

> <PUBCHEM_ATOM_UDEF_STEREO_COUNT>
0

> <PUBCHEM_BOND_DEF_STEREO_COUNT>
0

> <PUBCHEM_BOND_UDEF_STEREO_COUNT>
0

> <PUBCHEM_ISOTOPIC_ATOM_COUNT>
0

> <PUBCHEM_COMPONENT_COUNT>
1

> <PUBCHEM_CACTVS_TAUTO_COUNT>
-1

> <PUBCHEM_COORDINATE_TYPE>
1
5
255

> <PUBCHEM_BONDANNOTATIONS>
10  14  8
10  15  8
11  14  8
12  15  8
13  18  8
13  20  8
16  18  8
16  21  8
20  23  8
21  23  8
22  24  8
24  25  8
25  27  8
26  27  8
8  22  8
8  26  8
9  11  8
9  12  8

$$$$
