135397144
  -OEChem-10172515052D

 54 55  0     0  0  0  0  0  0999 V2000
   11.5263    5.3100    0.0000 Cl  0  0  0  0  0  0  0  0  0  0  0  0
    6.9282   11.1200    0.0000 F   0  0  0  0  0  0  0  0  0  0  0  0
    0.0000    7.1200    0.0000 F   0  0  0  0  0  0  0  0  0  0  0  0
    6.0622    6.6200    0.0000 O   0  0  0  0  0  0  0  0  0  0  0  0
    4.3301    5.6200    0.0000 O   0  0  0  0  0  0  0  0  0  0  0  0
    9.5263    0.6200    0.0000 O   0  0  0  0  0  0  0  0  0  0  0  0
    7.7942    2.6200    0.0000 N   0  0  0  0  0  0  0  0  0  0  0  0
    6.9282    4.1200    0.0000 C   0  0  0  0  0  0  0  0  0  0  0  0
    7.7942    3.6200    0.0000 C   0  0  0  0  0  0  0  0  0  0  0  0
    6.0622    5.6200    0.0000 C   0  0  0  0  0  0  0  0  0  0  0  0
    6.9282    5.1200    0.0000 C   0  0  0  0  0  0  0  0  0  0  0  0
    5.1962    5.1200    0.0000 C   0  0  0  0  0  0  0  0  0  0  0  0
    6.0622    3.6200    0.0000 C   0  0  0  0  0  0  0  0  0  0  0  0
    5.1962    4.1200    0.0000 C   0  0  0  0  0  0  0  0  0  0  0  0
    8.6603    2.1200    0.0000 C   0  0  0  0  0  0  0  0  0  0  0  0
    6.9282    7.1200    0.0000 C   0  0  0  0  0  0  0  0  0  0  0  0
    3.4641    5.1200    0.0000 C   0  0  0  0  0  0  0  0  0  0  0  0
    6.9282    8.1200    0.0000 C   0  0  0  0  0  0  0  0  0  0  0  0
    2.5981    5.6200    0.0000 C   0  0  0  0  0  0  0  0  0  0  0  0
    8.6603    1.1200    0.0000 C   0  0  0  0  0  0  0  0  0  0  0  0
    6.0622    8.6200    0.0000 C   0  0  0  0  0  0  0  0  0  0  0  0
    7.7942    8.6200    0.0000 C   0  0  0  0  0  0  0  0  0  0  0  0
    1.7321    5.1200    0.0000 C   0  0  0  0  0  0  0  0  0  0  0  0
    2.5981    6.6200    0.0000 C   0  0  0  0  0  0  0  0  0  0  0  0
    6.0622    9.6200    0.0000 C   0  0  0  0  0  0  0  0  0  0  0  0
    7.7942    9.6200    0.0000 C   0  0  0  0  0  0  0  0  0  0  0  0
    0.8660    5.6200    0.0000 C   0  0  0  0  0  0  0  0  0  0  0  0
    1.7321    7.1200    0.0000 C   0  0  0  0  0  0  0  0  0  0  0  0
    6.9282   10.1200    0.0000 C   0  0  0  0  0  0  0  0  0  0  0  0
    0.8660    6.6200    0.0000 C   0  0  0  0  0  0  0  0  0  0  0  0
    8.4048    3.5123    0.0000 H   0  0  0  0  0  0  0  0  0  0  0  0
    8.0063    4.2026    0.0000 H   0  0  0  0  0  0  0  0  0  0  0  0
    7.4651    5.4300    0.0000 H   0  0  0  0  0  0  0  0  0  0  0  0
    6.0622    3.0000    0.0000 H   0  0  0  0  0  0  0  0  0  0  0  0
    7.2573    2.3100    0.0000 H   0  0  0  0  0  0  0  0  0  0  0  0
    4.6592    3.8100    0.0000 H   0  0  0  0  0  0  0  0  0  0  0  0
    9.2708    2.0123    0.0000 H   0  0  0  0  0  0  0  0  0  0  0  0
    8.8723    2.7026    0.0000 H   0  0  0  0  0  0  0  0  0  0  0  0
    7.1403    6.5374    0.0000 H   0  0  0  0  0  0  0  0  0  0  0  0
    7.5388    7.2277    0.0000 H   0  0  0  0  0  0  0  0  0  0  0  0
    3.0656    4.6451    0.0000 H   0  0  0  0  0  0  0  0  0  0  0  0
    3.8626    4.6451    0.0000 H   0  0  0  0  0  0  0  0  0  0  0  0
    8.0497    1.2277    0.0000 H   0  0  0  0  0  0  0  0  0  0  0  0
    8.4482    0.5374    0.0000 H   0  0  0  0  0  0  0  0  0  0  0  0
    5.5252    8.3100    0.0000 H   0  0  0  0  0  0  0  0  0  0  0  0
    8.3312    8.3100    0.0000 H   0  0  0  0  0  0  0  0  0  0  0  0
    1.7321    4.5000    0.0000 H   0  0  0  0  0  0  0  0  0  0  0  0
    3.1350    6.9300    0.0000 H   0  0  0  0  0  0  0  0  0  0  0  0
    5.5252    9.9300    0.0000 H   0  0  0  0  0  0  0  0  0  0  0  0
    8.3312    9.9300    0.0000 H   0  0  0  0  0  0  0  0  0  0  0  0
    0.3291    5.3100    0.0000 H   0  0  0  0  0  0  0  0  0  0  0  0
    1.7321    7.7400    0.0000 H   0  0  0  0  0  0  0  0  0  0  0  0
    9.5263    0.0000    0.0000 H   0  0  0  0  0  0  0  0  0  0  0  0
   12.5263    5.3100    0.0000 H   0  0  0  0  0  0  0  0  0  0  0  0
  1 54  1  0  0  0  0
  2 29  1  0  0  0  0
  3 30  1  0  0  0  0
  4 10  1  0  0  0  0
  4 16  1  0  0  0  0
  5 12  1  0  0  0  0
  5 17  1  0  0  0  0
  6 20  1  0  0  0  0
  6 53  1  0  0  0  0
  7  9  1  0  0  0  0
  7 15  1  0  0  0  0
  7 35  1  0  0  0  0
  8  9  1  0  0  0  0
  8 11  2  0  0  0  0
  8 13  1  0  0  0  0
  9 31  1  0  0  0  0
  9 32  1  0  0  0  0
 10 11  1  0  0  0  0
 10 12  2  0  0  0  0
 11 33  1  0  0  0  0
 12 14  1  0  0  0  0
 13 14  2  0  0  0  0
 13 34  1  0  0  0  0
 14 36  1  0  0  0  0
 15 20  1  0  0  0  0
 15 37  1  0  0  0  0
 15 38  1  0  0  0  0
 16 18  1  0  0  0  0
 16 39  1  0  0  0  0
 16 40  1  0  0  0  0
 17 19  1  0  0  0  0
 17 41  1  0  0  0  0
 17 42  1  0  0  0  0
 18 21  2  0  0  0  0
 18 22  1  0  0  0  0
 19 23  2  0  0  0  0
 19 24  1  0  0  0  0
 20 43  1  0  0  0  0
 20 44  1  0  0  0  0
 21 25  1  0  0  0  0
 21 45  1  0  0  0  0
 22 26  2  0  0  0  0
 22 46  1  0  0  0  0
 23 27  1  0  0  0  0
 23 47  1  0  0  0  0
 24 28  2  0  0  0  0
 24 48  1  0  0  0  0
 25 29  2  0  0  0  0
 25 49  1  0  0  0  0
 26 29  1  0  0  0  0
 26 50  1  0  0  0  0
 27 30  2  0  0  0  0
 27 51  1  0  0  0  0
 28 30  1  0  0  0  0
 28 52  1  0  0  0  0
M  END
> <PUBCHEM_COMPOUND_CID>
135397144

> <PUBCHEM_COMPOUND_CANONICALIZED>
1

> <PUBCHEM_CACTVS_COMPLEXITY>
440

> <PUBCHEM_CACTVS_HBOND_ACCEPTOR>
6

> <PUBCHEM_CACTVS_HBOND_DONOR>
3

> <PUBCHEM_CACTVS_ROTATABLE_BOND>
10

> <PUBCHEM_CACTVS_SUBSKEYS>
AAADceB6MYAEAAAAAAAAAAAAAAAAAAAAAAAwYMAAAAAAAAABUAAAHwAQCAAADAThmA4wBoLABgCAAiBCAACCCAAgIAAIiIAOjIgPNiKEsRuGOCrk0BGaqAew0DIOIAABAAAAQABAAAIAAACAAAAAAAAAAA==

> <PUBCHEM_IUPAC_OPENEYE_NAME>
2-[[3,4-bis[(4-fluorophenyl)methoxy]phenyl]methylamino]ethanol;hydrochloride

> <PUBCHEM_IUPAC_CAS_NAME>
2-[[3,4-bis[(4-fluorophenyl)methoxy]phenyl]methylamino]ethanol;hydrochloride

> <PUBCHEM_IUPAC_NAME_MARKUP>
2-[[3,4-bis[(4-fluorophenyl)methoxy]phenyl]methylamino]ethanol;hydrochloride

> <PUBCHEM_IUPAC_NAME>
2-[[3,4-bis[(4-fluorophenyl)methoxy]phenyl]methylamino]ethanol;hydrochloride

> <PUBCHEM_IUPAC_SYSTEMATIC_NAME>
2-[[3,4-bis[(4-fluorophenyl)methoxy]phenyl]methylamino]ethanol;hydrochloride

> <PUBCHEM_IUPAC_TRADITIONAL_NAME>
2-[[3,4-bis[(4-fluorobenzyl)oxy]benzyl]amino]ethanol;hydrochloride

> <PUBCHEM_IUPAC_INCHI>
InChI=1S/C23H23F2NO3.ClH/c24-20-6-1-17(2-7-20)15-28-22-10-5-19(14-26-11-12-27)13-23(22)29-16-18-3-8-21(25)9-4-18;/h1-10,13,26-27H,11-12,14-16H2;1H

> <PUBCHEM_IUPAC_INCHIKEY>
OKFZPRHMUQRCLJ-UHFFFAOYSA-N

> <PUBCHEM_EXACT_MASS>
435.1412776

> <PUBCHEM_MOLECULAR_FORMULA>
C23H24ClF2NO3

> <PUBCHEM_MOLECULAR_WEIGHT>
435.9

> <PUBCHEM_SMILES>
C1=CC(=CC=C1COC2=C(C=C(C=C2)CNCCO)OCC3=CC=C(C=C3)F)F.Cl

> <PUBCHEM_CONNECTIVITY_SMILES>
C1=CC(=CC=C1COC2=C(C=C(C=C2)CNCCO)OCC3=CC=C(C=C3)F)F.Cl

> <PUBCHEM_CACTVS_TPSA>
50.7

> <PUBCHEM_MONOISOTOPIC_WEIGHT>
435.1412776

> <PUBCHEM_TOTAL_CHARGE>
0

> <PUBCHEM_HEAVY_ATOM_COUNT>
30

> <PUBCHEM_ATOM_DEF_STEREO_COUNT>
0

> <PUBCHEM_ATOM_UDEF_STEREO_COUNT>
0

> <PUBCHEM_BOND_DEF_STEREO_COUNT>
0

> <PUBCHEM_BOND_UDEF_STEREO_COUNT>
0

> <PUBCHEM_ISOTOPIC_ATOM_COUNT>
0

> <PUBCHEM_COMPONENT_COUNT>
2

> <PUBCHEM_CACTVS_TAUTO_COUNT>
-1

> <PUBCHEM_COORDINATE_TYPE>
1
5
255

> <PUBCHEM_BONDANNOTATIONS>
10  11  8
10  12  8
12  14  8
13  14  8
18  21  8
18  22  8
19  23  8
19  24  8
21  25  8
22  26  8
23  27  8
24  28  8
25  29  8
26  29  8
27  30  8
28  30  8
8  11  8
8  13  8

$$$$
